 Gaussian 16, Revision B.01,

 -------------------------
 #p B3LYP/6-311+g(d) force
 -------------------------

 (Enter /home/sekinelabo/g16/l101.exe)

 Symbolic Z-matrix:
 Charge =  0 Multiplicity = 1

 SCF Done:  E(RB3LYP) =  -649.163517651     A.U. after   19 cycles
 Normal termination of Gaussian 16 at Sat Sep 23 10:16:24 2023.

 -------------------------
 #p B3LYP/6-311+g(d) force
 -------------------------

 (Enter /home/sekinelabo/g16/l101.exe)

 Symbolic Z-matrix:
 Charge =  0 Multiplicity = 1

 SCF Done:  E(RB3LYP) =  -649.201425283     A.U. after   13 cycles
 Normal termination of Gaussian 16 at Sat Sep 23 10:16:26 2023.

 -------------------------
 #p B3LYP/6-311+g(d) force
 -------------------------

 (Enter /home/sekinelabo/g16/l101.exe)

 Symbolic Z-matrix:
 Charge =  0 Multiplicity = 1

 SCF Done:  E(RB3LYP) =  -649.164158556     A.U. after   13 cycles
 Normal termination of Gaussian 16 at Sat Sep 23 10:16:28 2023.

 -------------------------
 #p B3LYP/6-311+g(d) force
 -------------------------

 (Enter /home/sekinelabo/g16/l101.exe)

 Symbolic Z-matrix:
 Charge =  0 Multiplicity = 1

 SCF Done:  E(RB3LYP) =  -649.185944786     A.U. after   15 cycles
 Normal termination of Gaussian 16 at Sat Sep 23 10:16:30 2023.

 -------------------------
 #p B3LYP/6-311+g(d) force
 -------------------------

 (Enter /home/sekinelabo/g16/l101.exe)

 Symbolic Z-matrix:
 Charge =  0 Multiplicity = 1

 SCF Done:  E(RB3LYP) =  -649.166557172     A.U. after   18 cycles

 -------------------------
 #p B3LYP/6-311+g(d) force
 -------------------------

 (Enter /home/sekinelabo/g16/l101.exe)

 Symbolic Z-matrix:
 Charge =  0 Multiplicity = 1

 SCF Done:  E(RB3LYP) =  -649.191168174     A.U. after   14 cycles
 SCF Done:  E(RB3LYP) =  -649.163432806     A.U. after   15 cycles
 Normal termination of Gaussian 16 at Sat Sep 23 10:16:37 2023.
 SCF Done:  E(RB3LYP) =  -649.188233882     A.U. after   12 cycles
 Normal termination of Gaussian 16 at Sat Sep 23 10:16:39 2023.
 SCF Done:  E(RB3LYP) =  -649.190136633     A.U. after   14 cycles
 Normal termination of Gaussian 16 at Sat Sep 23 10:16:41 2023.
 Gaussian 16:  ES64L-G16RevB.01 20-Dec-2017

                         Standard orientation:
 ---------------------------------------------------------------------
 Center     Atomic      Atomic             Coordinates (Angstroms)
 Number     Number       Type             X           Y           Z
 ---------------------------------------------------------------------
      1         11           0       -2.363496   -2.066592    0.000000
      2         11           0        0.787832   -3.072962    0.000000
      3         11           0        0.787832    1.405784    0.000000
      4         11           0        0.787832    3.733770    0.000000
 ---------------------------------------------------------------------

 SCF Done:  E(RB3LYP) =  -649.186482774     A.U. after   11 cycles

 The electronic state is 1-A'.
 Alpha  occ. eigenvalues --  -38.45331 -38.45076 -38.44284 -38.44041  -2.21083
 Alpha  occ. eigenvalues --   -2.20835  -2.20306  -2.19918  -1.14952  -1.14752
 Alpha  occ. eigenvalues --   -1.14746  -1.14724  -1.14502  -1.14497  -1.14457
 Alpha  occ. eigenvalues --   -1.13842  -1.13842  -1.13461  -1.13460  -1.13093
 Alpha  occ. eigenvalues --   -0.14471  -0.12365
 Alpha virt. eigenvalues --   -0.06512  -0.04504  -0.03173  -0.02409  -0.01613
 Alpha virt. eigenvalues --   -0.01526  -0.01086   0.00257   0.00292   0.00459
 Alpha virt. eigenvalues --    0.00970   0.00997   0.01020   0.01307   0.01464

 Mulliken charges:
               1
     1  Na   0.071463
     2  Na   0.145801
     3  Na  -0.232240
     4  Na   0.014977
 Sum of Mulliken charges =   0.00000

 Dipole moment (field-independent basis, Debye):
    X=             -0.7832    Y=             -1.7808    Z=              0.0000  Tot=              1.9454
 Quadrupole moment (field-independent basis, Debye-Ang):
   XX=            -31.9867   YY=            -37.9326   ZZ=            -44.2856
   XY=             -3.8596   XZ=              0.0000   YZ=              0.0000

 Normal termination of Gaussian 16 at Sat Sep 23 10:16:43 2023.
