 Gaussian 16, Revision B.01,
 Gaussian 16:  ES64L-G16RevB.01 20-Dec-2017

 -------------------------
 #P B3LYP/6-311+g(d) force
 -------------------------

 ------------------------------
 Gaussian input prepared by ASE
 ------------------------------
 Symbolic Z-matrix:
 Charge =  0 Multiplicity = 2

                         Standard orientation:
 ---------------------------------------------------------------------
 Center     Atomic      Atomic             Coordinates (Angstroms)
 Number     Number       Type             X           Y           Z
 ---------------------------------------------------------------------
      1         11           0       -0.744866   -0.002567   -1.382202
      2         11           0       -2.211056   -1.914237    0.276464
      3         11           0       -2.205375    1.918314    0.274201
      4         11           0       -0.258469   -0.000877    1.303369
      5         11           0        2.481921    0.000655    1.200797
      6         11           0        1.467708    1.544992   -0.836656
      7         11           0        1.470138   -1.546281   -0.835974
 ---------------------------------------------------------------------

 SCF Done:  E(UB3LYP) =  -1136.07806694     A.U. after   20 cycles

 The electronic state is 2-A.
 Alpha  occ. eigenvalues --  -38.44799 -38.43796 -38.43654 -38.43651 -38.43636
 Alpha  occ. eigenvalues --  -38.43630 -38.43614  -2.20915  -2.20177  -2.19970
 Alpha  occ. eigenvalues --   -2.19790  -2.19782  -2.19578  -2.19568  -1.14778
 Alpha  occ. eigenvalues --   -1.14605  -1.14559  -1.14221  -1.14042  -1.13912
 Alpha  occ. eigenvalues --   -1.13662  -1.13584  -1.13508  -1.13467  -1.13417
 Alpha  occ. eigenvalues --   -1.13408  -1.13406  -1.13333  -1.13260  -1.13228
 Alpha  occ. eigenvalues --   -1.13221  -1.13213  -1.13202  -1.13146  -1.13131
 Alpha  occ. eigenvalues --   -0.21015  -0.14237  -0.12017  -0.11956
 Alpha virt. eigenvalues --   -0.05460  -0.04792  -0.03978  -0.03235  -0.02577
 Alpha virt. eigenvalues --   -0.02498  -0.01374  -0.00813  -0.00239   0.00341
 Alpha virt. eigenvalues --    0.00683   0.00775   0.00912   0.00929   0.01090

  Beta  occ. eigenvalues --  -38.44753 -38.43724 -38.43633 -38.43627 -38.43621
  Beta  occ. eigenvalues --  -38.43617 -38.43550  -2.20834  -2.20054  -2.19858
  Beta  occ. eigenvalues --   -2.19735  -2.19728  -2.19574  -2.19564  -1.14728
  Beta  occ. eigenvalues --   -1.14522  -1.14503  -1.14146  -1.13930  -1.13834
  Beta  occ. eigenvalues --   -1.13585  -1.13518  -1.13435  -1.13415  -1.13391
  Beta  occ. eigenvalues --   -1.13334  -1.13328  -1.13292  -1.13217  -1.13203
  Beta  occ. eigenvalues --   -1.13193  -1.13189  -1.13175  -1.13143  -1.13128
  Beta  occ. eigenvalues --   -0.20215  -0.13986  -0.11714
  Beta virt. eigenvalues --   -0.07651  -0.05399  -0.04753  -0.03242  -0.03052
  Beta virt. eigenvalues --   -0.01805  -0.01576  -0.01189  -0.00797   0.00007
  Beta virt. eigenvalues --    0.00374   0.00667   0.00825   0.00901   0.00997

 Mulliken charges and spin densities:
               1          2
     1  Na  -0.749929   0.047240
     2  Na   0.258833   0.011262
     3  Na   0.256536   0.010400
     4  Na  -0.721345   0.405154
     5  Na   1.327378   0.160728
     6  Na  -0.185610   0.182492
     7  Na  -0.185864   0.182725
 Sum of Mulliken charges =  -0.00000   1.00000

 Dipole moment (field-independent basis, Debye):
    X=             -0.2181    Y=              0.0007    Z=              0.2135  Tot=              0.3052
 Quadrupole moment (field-independent basis, Debye-Ang):
   XX=            -55.3526   YY=            -69.1782   ZZ=            -69.1019
   XY=             -0.0043   XZ=             -0.4434   YZ=              0.0023

 Normal termination of Gaussian 16 at Mon Nov 13 12:20:28 2023.
