 Gaussian 16, Revision B.01,
 Gaussian 16:  ES64L-G16RevB.01 20-Dec-2017

 -------------------------
 #P B3LYP/6-311+g(d) force
 -------------------------

 ------------------------------
 Gaussian input prepared by ASE
 ------------------------------
 Symbolic Z-matrix:
 Charge =  0 Multiplicity = 2

                         Standard orientation:
 ---------------------------------------------------------------------
 Center     Atomic      Atomic             Coordinates (Angstroms)
 Number     Number       Type             X           Y           Z
 ---------------------------------------------------------------------
      1         11           0       -2.392402    2.176840   -0.397177
      2         11           0        1.927752    1.998193   -0.521425
      3         11           0        3.669181   -0.015740    0.857922
      4         11           0        1.869981   -2.036240   -0.431964
      5         11           0       -0.325231    0.012826   -0.621208
      6         11           0       -2.301054   -0.024511    1.629310
      7         11           0       -2.448227   -2.111368   -0.515458
 ---------------------------------------------------------------------

 SCF Done:  E(UB3LYP) =  -1136.10195584     A.U. after   22 cycles

 The electronic state is 2-A.
 Alpha  occ. eigenvalues --  -38.44351 -38.44332 -38.44298 -38.44237 -38.44177
 Alpha  occ. eigenvalues --  -38.44051 -38.42616  -2.20240  -2.20238  -2.20221
 Alpha  occ. eigenvalues --   -2.20185  -2.20067  -2.19969  -2.18846  -1.14043
 Alpha  occ. eigenvalues --   -1.13981  -1.13967  -1.13951  -1.13936  -1.13933
 Alpha  occ. eigenvalues --   -1.13893  -1.13874  -1.13869  -1.13847  -1.13795
 Alpha  occ. eigenvalues --   -1.13762  -1.13744  -1.13690  -1.13654  -1.13591
 Alpha  occ. eigenvalues --   -1.13584  -1.13554  -1.12538  -1.12505  -1.12442
 Alpha  occ. eigenvalues --   -0.18763  -0.15042  -0.11839  -0.10139
 Alpha virt. eigenvalues --   -0.06413  -0.05905  -0.04213  -0.03657  -0.02390
 Alpha virt. eigenvalues --   -0.02249  -0.01479  -0.01407  -0.00665  -0.00042
 Alpha virt. eigenvalues --   -0.00005   0.00265   0.00559   0.00594   0.00687

  Beta  occ. eigenvalues --  -38.44337 -38.44316 -38.44295 -38.44183 -38.44174
  Beta  occ. eigenvalues --  -38.43996 -38.42558  -2.20218  -2.20197  -2.20186
  Beta  occ. eigenvalues --   -2.20136  -2.20066  -2.19866  -2.18746  -1.14013
  Beta  occ. eigenvalues --   -1.13959  -1.13939  -1.13923  -1.13888  -1.13872
  Beta  occ. eigenvalues --   -1.13861  -1.13855  -1.13836  -1.13819  -1.13786
  Beta  occ. eigenvalues --   -1.13746  -1.13708  -1.13679  -1.13621  -1.13524
  Beta  occ. eigenvalues --   -1.13513  -1.13495  -1.12478  -1.12418  -1.12361
  Beta  occ. eigenvalues --   -0.18201  -0.14550  -0.11486
  Beta virt. eigenvalues --   -0.06589  -0.06309  -0.05645  -0.03701  -0.03433
  Beta virt. eigenvalues --   -0.02125  -0.01705  -0.01375  -0.00851  -0.00557
  Beta virt. eigenvalues --    0.00033   0.00193   0.00389   0.00664   0.00755

 Mulliken charges and spin densities:
               1          2
     1  Na   0.517508  -0.034672
     2  Na   0.281875  -0.015989
     3  Na   0.285462   0.347575
     4  Na   0.317085  -0.017857
     5  Na  -1.571978   0.387770
     6  Na  -0.288193   0.393877
     7  Na   0.458240  -0.060704
 Sum of Mulliken charges =  -0.00000   1.00000

 Dipole moment (field-independent basis, Debye):
    X=             -0.3787    Y=             -0.0194    Z=             -0.2505  Tot=              0.4545
 Quadrupole moment (field-independent basis, Debye-Ang):
   XX=            -60.2560   YY=            -66.5864   ZZ=            -70.1844
   XY=              0.5891   XZ=              2.7034   YZ=             -0.0494

 Normal termination of Gaussian 16 at Mon Nov 13 12:18:03 2023.
