 Gaussian 16, Revision B.01,
 Gaussian 16:  ES64L-G16RevB.01 20-Dec-2017

 -------------------------
 #P B3LYP/6-311+g(d) force
 -------------------------

 ------------------------------
 Gaussian input prepared by ASE
 ------------------------------
 Symbolic Z-matrix:
 Charge =  0 Multiplicity = 2

                         Standard orientation:
 ---------------------------------------------------------------------
 Center     Atomic      Atomic             Coordinates (Angstroms)
 Number     Number       Type             X           Y           Z
 ---------------------------------------------------------------------
      1         11           0        0.000439   -0.001370    1.394310
      2         11           0        0.122980   -2.676305   -0.001593
      3         11           0       -1.674514    2.092535   -0.001138
      4         11           0       -2.507801   -0.943491    0.001025
      5         11           0        1.474877    2.238050    0.000560
      6         11           0        0.000071    0.000277   -1.392980
      7         11           0        2.583948   -0.709698   -0.000185
 ---------------------------------------------------------------------

 SCF Done:  E(UB3LYP) =  -1136.10837423     A.U. after   20 cycles

 The electronic state is 2-A.
 Alpha  occ. eigenvalues --  -38.43445 -38.43444 -38.43443 -38.43442 -38.43441
 Alpha  occ. eigenvalues --  -38.42879 -38.42878  -2.19474  -2.19471  -2.19469
 Alpha  occ. eigenvalues --   -2.19456  -2.19456  -2.19225  -2.19169  -1.13435
 Alpha  occ. eigenvalues --   -1.13341  -1.13339  -1.13209  -1.13209  -1.13160
 Alpha  occ. eigenvalues --   -1.13158  -1.13136  -1.13107  -1.13107  -1.13092
 Alpha  occ. eigenvalues --   -1.13092  -1.13043  -1.13030  -1.13029  -1.12969
 Alpha  occ. eigenvalues --   -1.12745  -1.12744  -1.12735  -1.12735  -1.12695
 Alpha  occ. eigenvalues --   -0.20784  -0.13523  -0.13518  -0.10686
 Alpha virt. eigenvalues --   -0.04959  -0.04875  -0.04873  -0.02836  -0.02833
 Alpha virt. eigenvalues --   -0.01632  -0.01162  -0.01161   0.00099   0.00253
 Alpha virt. eigenvalues --    0.00253   0.00377   0.00968   0.00969   0.01029

  Beta  occ. eigenvalues --  -38.43434 -38.43434 -38.43432 -38.43432 -38.43431
  Beta  occ. eigenvalues --  -38.42803 -38.42802  -2.19460  -2.19458  -2.19456
  Beta  occ. eigenvalues --   -2.19443  -2.19442  -2.19091  -2.19034  -1.13398
  Beta  occ. eigenvalues --   -1.13322  -1.13320  -1.13207  -1.13207  -1.13103
  Beta  occ. eigenvalues --   -1.13102  -1.13099  -1.13098  -1.13080  -1.13037
  Beta  occ. eigenvalues --   -1.13037  -1.13027  -1.13026  -1.12979  -1.12966
  Beta  occ. eigenvalues --   -1.12660  -1.12660  -1.12639  -1.12638  -1.12594
  Beta  occ. eigenvalues --   -0.20033  -0.13185  -0.13181
  Beta virt. eigenvalues --   -0.06611  -0.04995  -0.04853  -0.04852  -0.01962
  Beta virt. eigenvalues --   -0.01960  -0.01098  -0.01097  -0.00674   0.00207
  Beta virt. eigenvalues --    0.00208   0.00223   0.00433   0.00976   0.00977

 Mulliken charges and spin densities:
               1          2
     1  Na  -0.883900   0.498799
     2  Na   0.356185   0.001220
     3  Na   0.353108   0.000652
     4  Na   0.354965   0.001153
     5  Na   0.352951   0.000482
     6  Na  -0.888014   0.496796
     7  Na   0.354704   0.000898
 Sum of Mulliken charges =  -0.00000   1.00000

 Dipole moment (field-independent basis, Debye):
    X=              0.0003    Y=              0.0023    Z=              0.0010  Tot=              0.0025
 Quadrupole moment (field-independent basis, Debye-Ang):
   XX=            -58.1358   YY=            -58.1561   ZZ=            -75.8542
   XY=              0.0004   XZ=             -0.0009   YZ=              0.0039

 Normal termination of Gaussian 16 at Mon Nov 13 12:08:45 2023.
