 Gaussian 16, Revision B.01,
 Gaussian 16:  ES64L-G16RevB.01 20-Dec-2017

 -------------------------
 #P B3LYP/6-311+g(d) force
 -------------------------

 ------------------------------
 Gaussian input prepared by ASE
 ------------------------------
 Symbolic Z-matrix:
 Charge =  0 Multiplicity = 2

                         Standard orientation:
 ---------------------------------------------------------------------
 Center     Atomic      Atomic             Coordinates (Angstroms)
 Number     Number       Type             X           Y           Z
 ---------------------------------------------------------------------
      1         11           0        0.213419    0.000720   -1.086225
      2         11           0       -2.795585    0.111465   -1.135472
      3         11           0        3.202977    0.004065   -1.098615
      4         11           0        1.740618   -0.117319    1.501726
      5         11           0       -0.641509   -2.620608    0.121418
      6         11           0       -1.270267   -0.000422    1.458122
      7         11           0       -0.449653    2.622099    0.239045
 ---------------------------------------------------------------------

 SCF Done:  E(UB3LYP) =  -1136.10993015     A.U. after   20 cycles

 The electronic state is 2-A.
 Alpha  occ. eigenvalues --  -38.44336 -38.44292 -38.43643 -38.43312 -38.42973
 Alpha  occ. eigenvalues --  -38.42738 -38.42717  -2.20235  -2.20228  -2.19672
 Alpha  occ. eigenvalues --   -2.19520  -2.19274  -2.18674  -2.18654  -1.13981
 Alpha  occ. eigenvalues --   -1.13949  -1.13924  -1.13916  -1.13822  -1.13783
 Alpha  occ. eigenvalues --   -1.13517  -1.13345  -1.13276  -1.13233  -1.13140
 Alpha  occ. eigenvalues --   -1.13127  -1.12937  -1.12921  -1.12891  -1.12382
 Alpha  occ. eigenvalues --   -1.12341  -1.12336  -1.12311  -1.12255  -1.12237
 Alpha  occ. eigenvalues --   -0.20015  -0.13621  -0.11894  -0.11746
 Alpha virt. eigenvalues --   -0.05647  -0.04334  -0.03846  -0.03363  -0.02732
 Alpha virt. eigenvalues --   -0.02441  -0.01604  -0.00672  -0.00567   0.00342
 Alpha virt. eigenvalues --    0.00564   0.00608   0.00631   0.00971   0.01028

  Beta  occ. eigenvalues --  -38.44304 -38.44258 -38.43598 -38.43249 -38.42929
  Beta  occ. eigenvalues --  -38.42731 -38.42712  -2.20175  -2.20165  -2.19595
  Beta  occ. eigenvalues --   -2.19413  -2.19198  -2.18666  -2.18648  -1.13938
  Beta  occ. eigenvalues --   -1.13912  -1.13870  -1.13863  -1.13782  -1.13742
  Beta  occ. eigenvalues --   -1.13446  -1.13266  -1.13212  -1.13181  -1.13067
  Beta  occ. eigenvalues --   -1.13016  -1.12877  -1.12855  -1.12829  -1.12377
  Beta  occ. eigenvalues --   -1.12333  -1.12313  -1.12287  -1.12246  -1.12228
  Beta  occ. eigenvalues --   -0.19212  -0.13336  -0.11639
  Beta virt. eigenvalues --   -0.07622  -0.05494  -0.03960  -0.03609  -0.03285
  Beta virt. eigenvalues --   -0.01797  -0.01667  -0.01425  -0.00649  -0.00213
  Beta virt. eigenvalues --    0.00370   0.00621   0.00637   0.00722   0.00988

 Mulliken charges and spin densities:
               1          2
     1  Na  -0.376474   0.047978
     2  Na   0.334720   0.167721
     3  Na   0.147603   0.191891
     4  Na   0.120216   0.057750
     5  Na  -0.132996   0.200773
     6  Na   0.055207   0.192873
     7  Na  -0.148277   0.141013
 Sum of Mulliken charges =  -0.00000   1.00000

 Dipole moment (field-independent basis, Debye):
    X=              0.0593    Y=              0.0238    Z=             -0.2448  Tot=              0.2530
 Quadrupole moment (field-independent basis, Debye-Ang):
   XX=            -55.3455   YY=            -69.2763   ZZ=            -66.9121
   XY=              0.0366   XZ=              0.9798   YZ=             -0.0086

 Normal termination of Gaussian 16 at Mon Nov 13 12:27:53 2023.
