 Gaussian 16, Revision B.01,
 Gaussian 16:  ES64L-G16RevB.01 20-Dec-2017

 -------------------------
 #P B3LYP/6-311+g(d) force
 -------------------------

 ------------------------------
 Gaussian input prepared by ASE
 ------------------------------
 Symbolic Z-matrix:
 Charge =  0 Multiplicity = 2

                         Standard orientation:
 ---------------------------------------------------------------------
 Center     Atomic      Atomic             Coordinates (Angstroms)
 Number     Number       Type             X           Y           Z
 ---------------------------------------------------------------------
      1         11           0       -0.969649   -1.492735    1.208469
      2         11           0        1.776819   -1.517704   -0.009701
      3         11           0        4.259237   -0.086587   -0.886462
      4         11           0        1.980831    1.459823    0.286616
      5         11           0       -0.882724    1.513273    1.176980
      6         11           0       -2.932838    1.548309   -1.014776
      7         11           0       -3.231675   -1.424378   -0.761127
 ---------------------------------------------------------------------

 SCF Done:  E(UB3LYP) =  -1136.10187060     A.U. after   23 cycles

 The electronic state is 2-A.
 Alpha  occ. eigenvalues --  -38.44932 -38.44586 -38.44495 -38.44194 -38.44106
 Alpha  occ. eigenvalues --  -38.43422 -38.43209  -2.20850  -2.20488  -2.20396
 Alpha  occ. eigenvalues --   -2.20166  -2.20082  -2.19418  -2.19205  -1.14559
 Alpha  occ. eigenvalues --   -1.14508  -1.14460  -1.14252  -1.14164  -1.14118
 Alpha  occ. eigenvalues --   -1.14073  -1.14023  -1.13968  -1.13942  -1.13863
 Alpha  occ. eigenvalues --   -1.13800  -1.13786  -1.13712  -1.13656  -1.13136
 Alpha  occ. eigenvalues --   -1.13077  -1.13040  -1.12864  -1.12837  -1.12800
 Alpha  occ. eigenvalues --   -0.18836  -0.15474  -0.11929  -0.11297
 Alpha virt. eigenvalues --   -0.05992  -0.05639  -0.04612  -0.03281  -0.03017
 Alpha virt. eigenvalues --   -0.02584  -0.02131  -0.00725  -0.00584  -0.00413
 Alpha virt. eigenvalues --    0.00158   0.00265   0.00468   0.00562   0.00726

  Beta  occ. eigenvalues --  -38.44873 -38.44541 -38.44458 -38.44174 -38.44087
  Beta  occ. eigenvalues --  -38.43381 -38.43175  -2.20741  -2.20407  -2.20330
  Beta  occ. eigenvalues --   -2.20138  -2.20055  -2.19346  -2.19147  -1.14494
  Beta  occ. eigenvalues --   -1.14429  -1.14385  -1.14184  -1.14110  -1.14064
  Beta  occ. eigenvalues --   -1.14032  -1.13980  -1.13925  -1.13904  -1.13791
  Beta  occ. eigenvalues --   -1.13787  -1.13716  -1.13694  -1.13646  -1.13080
  Beta  occ. eigenvalues --   -1.13018  -1.12987  -1.12812  -1.12798  -1.12751
  Beta  occ. eigenvalues --   -0.18069  -0.14799  -0.11160
  Beta virt. eigenvalues --   -0.08149  -0.05785  -0.05269  -0.04079  -0.03145
  Beta virt. eigenvalues --   -0.02503  -0.02247  -0.01490  -0.00656  -0.00246
  Beta virt. eigenvalues --   -0.00162   0.00164   0.00371   0.00550   0.00622

 Mulliken charges and spin densities:
               1          2
     1  Na   0.097826   0.111193
     2  Na  -0.767870   0.040721
     3  Na   1.082081   0.246730
     4  Na  -0.087518   0.101814
     5  Na  -0.675746   0.153030
     6  Na   0.185112   0.154433
     7  Na   0.166116   0.192079
 Sum of Mulliken charges =  -0.00000   1.00000

 Dipole moment (field-independent basis, Debye):
    X=              0.8396    Y=              0.0040    Z=             -0.8925  Tot=              1.2254
 Quadrupole moment (field-independent basis, Debye-Ang):
   XX=            -53.0971   YY=            -76.9483   ZZ=            -66.8304
   XY=              0.3648   XZ=             -0.7527   YZ=             -0.2980

 Normal termination of Gaussian 16 at Mon Nov 13 12:11:08 2023.
