 Gaussian 16, Revision B.01,
 Gaussian 16:  ES64L-G16RevB.01 20-Dec-2017

 -------------------------
 #P B3LYP/6-311+g(d) force
 -------------------------

 ------------------------------
 Gaussian input prepared by ASE
 ------------------------------
 Symbolic Z-matrix:
 Charge =  0 Multiplicity = 2

                         Standard orientation:
 ---------------------------------------------------------------------
 Center     Atomic      Atomic             Coordinates (Angstroms)
 Number     Number       Type             X           Y           Z
 ---------------------------------------------------------------------
      1         11           0        1.356162   -0.777914    1.269959
      2         11           0       -1.236041    2.869505    0.349027
      3         11           0        3.732815   -0.199088   -0.468988
      4         11           0        1.394295    1.674072   -0.451183
      5         11           0       -0.171969   -2.907262   -0.181301
      6         11           0       -1.065014   -0.045212   -0.345530
      7         11           0       -4.010247   -0.614102   -0.171984
 ---------------------------------------------------------------------

 SCF Done:  E(UB3LYP) =  -1136.10294264     A.U. after   20 cycles

 The electronic state is 2-A.
 Alpha  occ. eigenvalues --  -38.44266 -38.43990 -38.43970 -38.43912 -38.43594
 Alpha  occ. eigenvalues --  -38.43514 -38.43029  -2.20346  -2.19888  -2.19873
 Alpha  occ. eigenvalues --   -2.19757  -2.19597  -2.19527  -2.19215  -1.14103
 Alpha  occ. eigenvalues --   -1.14044  -1.14001  -1.13642  -1.13590  -1.13535
 Alpha  occ. eigenvalues --   -1.13531  -1.13503  -1.13486  -1.13462  -1.13383
 Alpha  occ. eigenvalues --   -1.13354  -1.13324  -1.13313  -1.13238  -1.13162
 Alpha  occ. eigenvalues --   -1.13123  -1.13070  -1.12901  -1.12866  -1.12795
 Alpha  occ. eigenvalues --   -0.19144  -0.14051  -0.12990  -0.10286
 Alpha virt. eigenvalues --   -0.06272  -0.05398  -0.04406  -0.03324  -0.02545
 Alpha virt. eigenvalues --   -0.02174  -0.01409  -0.01091  -0.00682  -0.00205
 Alpha virt. eigenvalues --   -0.00092  -0.00013   0.00534   0.00618   0.00887

  Beta  occ. eigenvalues --  -38.44245 -38.43976 -38.43962 -38.43812 -38.43526
  Beta  occ. eigenvalues --  -38.43498 -38.43015  -2.20313  -2.19866  -2.19861
  Beta  occ. eigenvalues --   -2.19576  -2.19570  -2.19400  -2.19198  -1.14073
  Beta  occ. eigenvalues --   -1.13998  -1.13974  -1.13623  -1.13575  -1.13527
  Beta  occ. eigenvalues --   -1.13505  -1.13493  -1.13473  -1.13356  -1.13298
  Beta  occ. eigenvalues --   -1.13257  -1.13255  -1.13227  -1.13215  -1.13080
  Beta  occ. eigenvalues --   -1.13036  -1.13001  -1.12861  -1.12825  -1.12791
  Beta  occ. eigenvalues --   -0.18717  -0.13215  -0.12663
  Beta virt. eigenvalues --   -0.06738  -0.06111  -0.05217  -0.04284  -0.02586
  Beta virt. eigenvalues --   -0.02176  -0.02009  -0.01288  -0.00613  -0.00458
  Beta virt. eigenvalues --   -0.00007   0.00129   0.00250   0.00654   0.00763

 Mulliken charges and spin densities:
               1          2
     1  Na   0.734625   0.054795
     2  Na   0.446653   0.035207
     3  Na   0.375169   0.289710
     4  Na   0.350344   0.241800
     5  Na   0.221996   0.015643
     6  Na  -2.383094  -0.081026
     7  Na   0.254308   0.443870
 Sum of Mulliken charges =  -0.00000   1.00000

 Dipole moment (field-independent basis, Debye):
    X=              0.2523    Y=             -0.2238    Z=              0.5468  Tot=              0.6425
 Quadrupole moment (field-independent basis, Debye-Ang):
   XX=            -71.9927   YY=            -61.8090   ZZ=            -67.1637
   XY=             -4.7525   XZ=             -1.7811   YZ=              2.2979

 Normal termination of Gaussian 16 at Mon Nov 13 12:07:12 2023.
