 Gaussian 16, Revision B.01,
 Gaussian 16:  ES64L-G16RevB.01 20-Dec-2017

 -------------------------
 #P B3LYP/6-311+g(d) force
 -------------------------

 ------------------------------
 Gaussian input prepared by ASE
 ------------------------------
 Symbolic Z-matrix:
 Charge =  0 Multiplicity = 2

                         Standard orientation:
 ---------------------------------------------------------------------
 Center     Atomic      Atomic             Coordinates (Angstroms)
 Number     Number       Type             X           Y           Z
 ---------------------------------------------------------------------
      1         11           0       -0.976932    0.182659    1.528192
      2         11           0        1.789997    0.127469    1.418487
      3         11           0       -3.220484    0.021707   -0.257400
      4         11           0       -0.610002   -0.310964   -1.416349
      5         11           0        0.460564   -2.228599    0.232820
      6         11           0        2.117444   -0.067457   -1.301918
      7         11           0        0.439412    2.275186   -0.203833
 ---------------------------------------------------------------------

 SCF Done:  E(UB3LYP) =  -1136.08330195     A.U. after   21 cycles

 The electronic state is 2-A.
 Alpha  occ. eigenvalues --  -38.44580 -38.44400 -38.44353 -38.44003 -38.43965
 Alpha  occ. eigenvalues --  -38.42683 -38.42473  -2.20579  -2.20522  -2.20506
 Alpha  occ. eigenvalues --   -2.20309  -2.20182  -2.18778  -2.18525  -1.14554
 Alpha  occ. eigenvalues --   -1.14534  -1.14437  -1.14316  -1.14216  -1.14140
 Alpha  occ. eigenvalues --   -1.14080  -1.14063  -1.14031  -1.13971  -1.13915
 Alpha  occ. eigenvalues --   -1.13807  -1.13776  -1.13740  -1.13725  -1.12500
 Alpha  occ. eigenvalues --   -1.12431  -1.12337  -1.12253  -1.12184  -1.12114
 Alpha  occ. eigenvalues --   -0.21271  -0.13806  -0.12781  -0.12069
 Alpha virt. eigenvalues --   -0.05776  -0.04070  -0.03736  -0.03420  -0.03091
 Alpha virt. eigenvalues --   -0.02920  -0.01456  -0.00417  -0.00300   0.00300
 Alpha virt. eigenvalues --    0.00625   0.00773   0.01002   0.01032   0.01065

  Beta  occ. eigenvalues --  -38.44575 -38.44352 -38.44293 -38.43934 -38.43897
  Beta  occ. eigenvalues --  -38.42668 -38.42461  -2.20499  -2.20486  -2.20425
  Beta  occ. eigenvalues --   -2.20191  -2.20063  -2.18758  -2.18509  -1.14494
  Beta  occ. eigenvalues --   -1.14441  -1.14346  -1.14282  -1.14185  -1.14078
  Beta  occ. eigenvalues --   -1.14067  -1.13994  -1.13966  -1.13901  -1.13839
  Beta  occ. eigenvalues --   -1.13729  -1.13693  -1.13650  -1.13629  -1.12493
  Beta  occ. eigenvalues --   -1.12371  -1.12324  -1.12248  -1.12125  -1.12110
  Beta  occ. eigenvalues --   -0.20433  -0.13653  -0.11740
  Beta virt. eigenvalues --   -0.08305  -0.05706  -0.03486  -0.03460  -0.03324
  Beta virt. eigenvalues --   -0.02171  -0.01981  -0.01378  -0.00291  -0.00114
  Beta virt. eigenvalues --    0.00332   0.00688   0.00936   0.00986   0.01032

 Mulliken charges and spin densities:
               1          2
     1  Na   0.039667   0.130117
     2  Na   0.901600   0.117554
     3  Na  -0.273798   0.068946
     4  Na   0.359438   0.256039
     5  Na  -0.864321   0.261704
     6  Na   0.777902   0.016565
     7  Na  -0.940488   0.149076
 Sum of Mulliken charges =  -0.00000   1.00000

 Dipole moment (field-independent basis, Debye):
    X=             -0.4124    Y=              0.1138    Z=             -0.0434  Tot=              0.4301
 Quadrupole moment (field-independent basis, Debye-Ang):
   XX=            -56.3419   YY=            -73.5798   ZZ=            -65.5113
   XY=             -0.2267   XZ=              0.1298   YZ=             -1.2002

 Normal termination of Gaussian 16 at Mon Nov 13 12:22:29 2023.
