 Gaussian 16, Revision B.01,
 Gaussian 16:  ES64L-G16RevB.01 20-Dec-2017

 -------------------------
 #P B3LYP/6-311+g(d) force
 -------------------------

 ------------------------------
 Gaussian input prepared by ASE
 ------------------------------
 Symbolic Z-matrix:
 Charge =  0 Multiplicity = 2

                         Standard orientation:
 ---------------------------------------------------------------------
 Center     Atomic      Atomic             Coordinates (Angstroms)
 Number     Number       Type             X           Y           Z
 ---------------------------------------------------------------------
      1         11           0       -2.094537    0.825710   -1.419559
      2         11           0       -1.951083    2.616123    0.982661
      3         11           0       -2.997966   -1.986735   -0.884010
      4         11           0       -1.075602   -2.125643    1.418536
      5         11           0        0.123762    0.493816    0.573968
      6         11           0        2.859104    1.044089   -0.526073
      7         11           0        5.136321   -0.867359   -0.145523
 ---------------------------------------------------------------------

 SCF Done:  E(UB3LYP) =  -1136.09939877     A.U. after   22 cycles

 The electronic state is 2-A.
 Alpha  occ. eigenvalues --  -38.44980 -38.44327 -38.44282 -38.44137 -38.43898
 Alpha  occ. eigenvalues --  -38.43634 -38.43450  -2.20784  -2.20190  -2.20171
 Alpha  occ. eigenvalues --   -2.20142  -2.19977  -2.19549  -2.19361  -1.14479
 Alpha  occ. eigenvalues --   -1.14424  -1.14418  -1.14017  -1.13953  -1.13883
 Alpha  occ. eigenvalues --   -1.13856  -1.13826  -1.13811  -1.13807  -1.13775
 Alpha  occ. eigenvalues --   -1.13694  -1.13653  -1.13591  -1.13536  -1.13251
 Alpha  occ. eigenvalues --   -1.13200  -1.13167  -1.13031  -1.12989  -1.12939
 Alpha  occ. eigenvalues --   -0.18349  -0.14062  -0.12152  -0.11085
 Alpha virt. eigenvalues --   -0.07045  -0.04895  -0.03792  -0.03391  -0.03202
 Alpha virt. eigenvalues --   -0.02601  -0.01939  -0.01697  -0.00456  -0.00361
 Alpha virt. eigenvalues --   -0.00048   0.00043   0.00434   0.00689   0.00792

  Beta  occ. eigenvalues --  -38.44949 -38.44332 -38.44280 -38.44072 -38.43848
  Beta  occ. eigenvalues --  -38.43581 -38.43420  -2.20727  -2.20202  -2.20169
  Beta  occ. eigenvalues --   -2.20027  -2.19890  -2.19453  -2.19309  -1.14443
  Beta  occ. eigenvalues --   -1.14385  -1.14379  -1.13992  -1.13931  -1.13848
  Beta  occ. eigenvalues --   -1.13838  -1.13814  -1.13795  -1.13787  -1.13708
  Beta  occ. eigenvalues --   -1.13632  -1.13585  -1.13527  -1.13474  -1.13195
  Beta  occ. eigenvalues --   -1.13125  -1.13104  -1.12979  -1.12957  -1.12890
  Beta  occ. eigenvalues --   -0.17699  -0.13679  -0.11962
  Beta virt. eigenvalues --   -0.07352  -0.06673  -0.04734  -0.03406  -0.03023
  Beta virt. eigenvalues --   -0.02628  -0.02471  -0.01586  -0.01313  -0.00334
  Beta virt. eigenvalues --   -0.00098   0.00040   0.00183   0.00584   0.00704

 Mulliken charges and spin densities:
               1          2
     1  Na   0.644389   0.428723
     2  Na   0.750807  -0.086227
     3  Na  -0.333150   0.018695
     4  Na   1.014857   0.059988
     5  Na  -2.468057   0.426208
     6  Na   0.245358   0.010854
     7  Na   0.145795   0.141760
 Sum of Mulliken charges =  -0.00000   1.00000

 Dipole moment (field-independent basis, Debye):
    X=              0.6066    Y=             -0.0012    Z=              0.5627  Tot=              0.8274
 Quadrupole moment (field-independent basis, Debye-Ang):
   XX=            -58.6991   YY=            -67.5860   ZZ=            -68.6002
   XY=             -6.3345   XZ=             -1.9713   YZ=              0.8225

 Normal termination of Gaussian 16 at Mon Nov 13 12:29:45 2023.
