 Gaussian 16, Revision B.01,
 Gaussian 16:  ES64L-G16RevB.01 20-Dec-2017

 -------------------------
 #P B3LYP/6-311+g(d) force
 -------------------------

 ------------------------------
 Gaussian input prepared by ASE
 ------------------------------
 Symbolic Z-matrix:
 Charge =  0 Multiplicity = 2

                         Standard orientation:
 ---------------------------------------------------------------------
 Center     Atomic      Atomic             Coordinates (Angstroms)
 Number     Number       Type             X           Y           Z
 ---------------------------------------------------------------------
      1         11           0       -1.029651    1.386871    0.206053
      2         11           0        0.811371   -0.282467    1.890932
      3         11           0       -3.718963    0.098653   -0.112006
      4         11           0       -1.256745   -1.590236    0.141206
      5         11           0        0.478657   -0.178071   -1.872310
      6         11           0        1.930400    1.712522   -0.049203
      7         11           0        2.784931   -1.147272   -0.204672
 ---------------------------------------------------------------------

 SCF Done:  E(UB3LYP) =  -1136.09143629     A.U. after   26 cycles

 The electronic state is 2-A.
 Alpha  occ. eigenvalues --  -38.45930 -38.44443 -38.44390 -38.44119 -38.43191
 Alpha  occ. eigenvalues --  -38.42936 -38.42672  -2.21796  -2.20490  -2.20426
 Alpha  occ. eigenvalues --   -2.20228  -2.19253  -2.19023  -2.18831  -1.15494
 Alpha  occ. eigenvalues --   -1.15460  -1.15424  -1.14270  -1.14223  -1.14167
 Alpha  occ. eigenvalues --   -1.14104  -1.14046  -1.13974  -1.13959  -1.13862
 Alpha  occ. eigenvalues --   -1.13776  -1.13021  -1.12921  -1.12837  -1.12767
 Alpha  occ. eigenvalues --   -1.12671  -1.12662  -1.12522  -1.12482  -1.12381
 Alpha  occ. eigenvalues --   -0.20702  -0.14766  -0.11956  -0.11112
 Alpha virt. eigenvalues --   -0.07283  -0.04314  -0.04173  -0.03307  -0.02717
 Alpha virt. eigenvalues --   -0.02262  -0.02154  -0.00665  -0.00311   0.00056
 Alpha virt. eigenvalues --    0.00307   0.00433   0.00497   0.00911   0.00974

  Beta  occ. eigenvalues --  -38.45940 -38.44425 -38.44301 -38.44022 -38.43177
  Beta  occ. eigenvalues --  -38.42922 -38.42649  -2.21816  -2.20399  -2.20326
  Beta  occ. eigenvalues --   -2.20052  -2.19234  -2.19004  -2.18798  -1.15507
  Beta  occ. eigenvalues --   -1.15477  -1.15428  -1.14216  -1.14114  -1.14101
  Beta  occ. eigenvalues --   -1.14025  -1.13987  -1.13893  -1.13841  -1.13746
  Beta  occ. eigenvalues --   -1.13656  -1.13011  -1.12855  -1.12835  -1.12758
  Beta  occ. eigenvalues --   -1.12665  -1.12591  -1.12509  -1.12394  -1.12367
  Beta  occ. eigenvalues --   -0.19858  -0.14528  -0.10794
  Beta virt. eigenvalues --   -0.07772  -0.07134  -0.04357  -0.03312  -0.02904
  Beta virt. eigenvalues --   -0.02535  -0.01564  -0.01460  -0.00632  -0.00071
  Beta virt. eigenvalues --    0.00099   0.00321   0.00477   0.00698   0.00967

 Mulliken charges and spin densities:
               1          2
     1  Na  -0.383456   0.177711
     2  Na   0.121091   0.369953
     3  Na   0.096905  -0.129021
     4  Na   0.034085   0.155297
     5  Na  -0.190318   0.357732
     6  Na   0.021105   0.022770
     7  Na   0.300588   0.045559
 Sum of Mulliken charges =  -0.00000   1.00000

 Dipole moment (field-independent basis, Debye):
    X=             -0.9937    Y=             -0.1976    Z=             -0.1319  Tot=              1.0217
 Quadrupole moment (field-independent basis, Debye-Ang):
   XX=            -43.6834   YY=            -79.9302   ZZ=            -68.8027
   XY=             -0.4049   XZ=              0.5268   YZ=              0.1475

 Normal termination of Gaussian 16 at Mon Nov 13 12:30:36 2023.
