 Gaussian 16, Revision B.01,
 Gaussian 16:  ES64L-G16RevB.01 20-Dec-2017

 -------------------------
 #P B3LYP/6-311+g(d) force
 -------------------------

 ------------------------------
 Gaussian input prepared by ASE
 ------------------------------
 Symbolic Z-matrix:
 Charge =  0 Multiplicity = 2

                         Standard orientation:
 ---------------------------------------------------------------------
 Center     Atomic      Atomic             Coordinates (Angstroms)
 Number     Number       Type             X           Y           Z
 ---------------------------------------------------------------------
      1         11           0       -0.271521   -0.007462   -1.694550
      2         11           0       -0.889144   -1.547887    0.945099
      3         11           0       -2.934001   -0.003830   -0.473143
      4         11           0       -0.886879    1.560038    0.929522
      5         11           0        1.364611    0.008059    1.607778
      6         11           0        1.808195    1.577819   -0.663818
      7         11           0        1.808740   -1.586738   -0.650887
 ---------------------------------------------------------------------

 SCF Done:  E(UB3LYP) =  -1136.08390916     A.U. after   24 cycles

 The electronic state is 2-A.
 Alpha  occ. eigenvalues --  -38.44575 -38.44372 -38.44355 -38.43429 -38.43412
 Alpha  occ. eigenvalues --  -38.43150 -38.43127  -2.20820  -2.20622  -2.20361
 Alpha  occ. eigenvalues --   -2.19528  -2.19509  -2.19308  -2.19282  -1.14599
 Alpha  occ. eigenvalues --   -1.14545  -1.14466  -1.14446  -1.14330  -1.14250
 Alpha  occ. eigenvalues --   -1.14064  -1.13984  -1.13978  -1.13244  -1.13198
 Alpha  occ. eigenvalues --   -1.13189  -1.13169  -1.13138  -1.13079  -1.13043
 Alpha  occ. eigenvalues --   -1.12969  -1.12942  -1.12909  -1.12873  -1.12807
 Alpha  occ. eigenvalues --   -0.21500  -0.14170  -0.12927  -0.11979
 Alpha virt. eigenvalues --   -0.05546  -0.04274  -0.03920  -0.03823  -0.03036
 Alpha virt. eigenvalues --   -0.02843  -0.01190  -0.00339  -0.00335   0.00308
 Alpha virt. eigenvalues --    0.00719   0.00965   0.00983   0.01055   0.01082

  Beta  occ. eigenvalues --  -38.44500 -38.44348 -38.44286 -38.43409 -38.43392
  Beta  occ. eigenvalues --  -38.43115 -38.43092  -2.20688  -2.20468  -2.20348
  Beta  occ. eigenvalues --   -2.19497  -2.19479  -2.19250  -2.19225  -1.14513
  Beta  occ. eigenvalues --   -1.14434  -1.14371  -1.14337  -1.14248  -1.14142
  Beta  occ. eigenvalues --   -1.14044  -1.13979  -1.13932  -1.13223  -1.13180
  Beta  occ. eigenvalues --   -1.13137  -1.13118  -1.13106  -1.13031  -1.13016
  Beta  occ. eigenvalues --   -1.12917  -1.12877  -1.12852  -1.12831  -1.12762
  Beta  occ. eigenvalues --   -0.20654  -0.13900  -0.11717
  Beta virt. eigenvalues --   -0.08502  -0.05486  -0.03933  -0.03491  -0.03263
  Beta virt. eigenvalues --   -0.02243  -0.02029  -0.01133  -0.00330  -0.00085
  Beta virt. eigenvalues --    0.00339   0.00804   0.00975   0.01050   0.01095

 Mulliken charges and spin densities:
               1          2
     1  Na  -0.002774   0.459267
     2  Na  -0.738053   0.123572
     3  Na   0.907839  -0.010940
     4  Na  -0.743379   0.123098
     5  Na   0.753426   0.345313
     6  Na  -0.083468  -0.019994
     7  Na  -0.093590  -0.020317
 Sum of Mulliken charges =  -0.00000   1.00000

 Dipole moment (field-independent basis, Debye):
    X=             -0.3461    Y=             -0.0029    Z=             -0.2330  Tot=              0.4173
 Quadrupole moment (field-independent basis, Debye-Ang):
   XX=            -57.5650   YY=            -74.7397   ZZ=            -64.8303
   XY=             -0.0077   XZ=             -0.0623   YZ=             -0.0184

 Normal termination of Gaussian 16 at Mon Nov 13 12:19:18 2023.
