 Gaussian 16, Revision B.01,
 Gaussian 16:  ES64L-G16RevB.01 20-Dec-2017

 -------------------------
 #P B3LYP/6-311+g(d) force
 -------------------------

 ------------------------------
 Gaussian input prepared by ASE
 ------------------------------
 Symbolic Z-matrix:
 Charge =  0 Multiplicity = 2

                         Standard orientation:
 ---------------------------------------------------------------------
 Center     Atomic      Atomic             Coordinates (Angstroms)
 Number     Number       Type             X           Y           Z
 ---------------------------------------------------------------------
      1         11           0        0.013047   -0.579008    1.508239
      2         11           0        0.698907   -1.657279   -1.194030
      3         11           0        2.888709   -0.946853    0.733605
      4         11           0        2.875051    1.943544   -0.093526
      5         11           0        0.054002    1.257161   -0.868697
      6         11           0       -2.110548   -0.793667   -0.592029
      7         11           0       -4.419168    0.776102    0.506438
 ---------------------------------------------------------------------

 SCF Done:  E(UB3LYP) =  -1136.09253983     A.U. after   28 cycles

 The electronic state is 2-A.
 Alpha  occ. eigenvalues --  -38.45256 -38.44781 -38.44512 -38.43993 -38.43486
 Alpha  occ. eigenvalues --  -38.43305 -38.43176  -2.21320  -2.20605  -2.20518
 Alpha  occ. eigenvalues --   -2.20080  -2.19583  -2.19397  -2.19088  -1.15077
 Alpha  occ. eigenvalues --   -1.14997  -1.14915  -1.14306  -1.14233  -1.14217
 Alpha  occ. eigenvalues --   -1.14197  -1.14184  -1.14138  -1.13828  -1.13741
 Alpha  occ. eigenvalues --   -1.13715  -1.13330  -1.13245  -1.13203  -1.13069
 Alpha  occ. eigenvalues --   -1.13020  -1.12987  -1.12763  -1.12750  -1.12707
 Alpha  occ. eigenvalues --   -0.20073  -0.14683  -0.11553  -0.11395
 Alpha virt. eigenvalues --   -0.07416  -0.04862  -0.04172  -0.03184  -0.03029
 Alpha virt. eigenvalues --   -0.02177  -0.01997  -0.01330  -0.00722  -0.00119
 Alpha virt. eigenvalues --    0.00031   0.00304   0.00395   0.00724   0.00840

  Beta  occ. eigenvalues --  -38.45215 -38.44725 -38.44471 -38.43933 -38.43465
  Beta  occ. eigenvalues --  -38.43290 -38.43167  -2.21247  -2.20501  -2.20443
  Beta  occ. eigenvalues --   -2.19976  -2.19556  -2.19379  -2.19073  -1.15009
  Beta  occ. eigenvalues --   -1.14937  -1.14879  -1.14236  -1.14159  -1.14158
  Beta  occ. eigenvalues --   -1.14149  -1.14121  -1.14081  -1.13747  -1.13668
  Beta  occ. eigenvalues --   -1.13640  -1.13283  -1.13215  -1.13177  -1.13063
  Beta  occ. eigenvalues --   -1.12977  -1.12939  -1.12746  -1.12736  -1.12691
  Beta  occ. eigenvalues --   -0.19434  -0.14126  -0.11308
  Beta virt. eigenvalues --   -0.07625  -0.07128  -0.04727  -0.03539  -0.02958
  Beta virt. eigenvalues --   -0.02792  -0.01712  -0.01362  -0.01137  -0.00375
  Beta virt. eigenvalues --   -0.00041   0.00131   0.00342   0.00565   0.00771

 Mulliken charges and spin densities:
               1          2
     1  Na  -1.267764   0.013148
     2  Na  -0.091808   0.076338
     3  Na   1.329532   0.463617
     4  Na  -0.596995  -0.182738
     5  Na  -0.791969   0.255830
     6  Na   1.013912   0.347471
     7  Na   0.405092   0.026335
 Sum of Mulliken charges =  -0.00000   1.00000

 Dipole moment (field-independent basis, Debye):
    X=             -0.1002    Y=             -0.3867    Z=             -0.0045  Tot=              0.3995
 Quadrupole moment (field-independent basis, Debye-Ang):
   XX=            -55.8028   YY=            -74.0516   ZZ=            -68.6613
   XY=             -3.3555   XZ=             -1.2480   YZ=              2.7089

 Normal termination of Gaussian 16 at Mon Nov 13 12:15:34 2023.
