 Gaussian 16, Revision B.01,
 Gaussian 16:  ES64L-G16RevB.01 20-Dec-2017

 -------------------------
 #P B3LYP/6-311+g(d) force
 -------------------------

 ------------------------------
 Gaussian input prepared by ASE
 ------------------------------
 Symbolic Z-matrix:
 Charge =  0 Multiplicity = 2

                         Standard orientation:
 ---------------------------------------------------------------------
 Center     Atomic      Atomic             Coordinates (Angstroms)
 Number     Number       Type             X           Y           Z
 ---------------------------------------------------------------------
      1         11           0       -1.689401   -0.518749    1.747219
      2         11           0        1.099966   -2.114369   -1.604495
      3         11           0       -1.765628   -1.361812   -1.127330
      4         11           0       -1.975231    1.540274   -0.412509
      5         11           0        0.780032    2.539372   -1.061972
      6         11           0        2.372504    0.172660   -0.130939
      7         11           0        1.177758   -0.257376    2.590025
 ---------------------------------------------------------------------

 SCF Done:  E(UB3LYP) =  -1136.10409062     A.U. after   25 cycles

 The electronic state is 2-A.
 Alpha  occ. eigenvalues --  -38.45991 -38.44793 -38.44394 -38.43933 -38.43487
 Alpha  occ. eigenvalues --  -38.43289 -38.43289  -2.21889  -2.20776  -2.20287
 Alpha  occ. eigenvalues --   -2.19913  -2.19451  -2.19266  -2.19176  -1.15592
 Alpha  occ. eigenvalues --   -1.15534  -1.15466  -1.14468  -1.14438  -1.14400
 Alpha  occ. eigenvalues --   -1.14010  -1.13973  -1.13885  -1.13599  -1.13558
 Alpha  occ. eigenvalues --   -1.13529  -1.13176  -1.13137  -1.13090  -1.13012
 Alpha  occ. eigenvalues --   -1.12935  -1.12921  -1.12810  -1.12788  -1.12742
 Alpha  occ. eigenvalues --   -0.19308  -0.13470  -0.13220  -0.12142
 Alpha virt. eigenvalues --   -0.05112  -0.05087  -0.04503  -0.04366  -0.03517
 Alpha virt. eigenvalues --   -0.03396  -0.00672  -0.00594  -0.00373   0.00398
 Alpha virt. eigenvalues --    0.00434   0.00506   0.00726   0.00813   0.00901

  Beta  occ. eigenvalues --  -38.45885 -38.44737 -38.44342 -38.43909 -38.43482
  Beta  occ. eigenvalues --  -38.43285 -38.43281  -2.21698  -2.20678  -2.20194
  Beta  occ. eigenvalues --   -2.19869  -2.19446  -2.19259  -2.19162  -1.15441
  Beta  occ. eigenvalues --   -1.15407  -1.15340  -1.14398  -1.14350  -1.14336
  Beta  occ. eigenvalues --   -1.13938  -1.13912  -1.13823  -1.13570  -1.13524
  Beta  occ. eigenvalues --   -1.13487  -1.13156  -1.13121  -1.13090  -1.13004
  Beta  occ. eigenvalues --   -1.12929  -1.12909  -1.12796  -1.12779  -1.12737
  Beta  occ. eigenvalues --   -0.18507  -0.13112  -0.11825
  Beta virt. eigenvalues --   -0.09224  -0.04530  -0.04422  -0.04343  -0.04135
  Beta virt. eigenvalues --   -0.02947  -0.02745  -0.00618  -0.00338  -0.00300
  Beta virt. eigenvalues --    0.00447   0.00628   0.00794   0.00799   0.00850

 Mulliken charges and spin densities:
               1          2
     1  Na   0.008177  -0.189325
     2  Na   0.075022   0.135973
     3  Na   0.176969   0.336717
     4  Na  -0.189965   0.186887
     5  Na   0.171122   0.018423
     6  Na  -0.581433  -0.000710
     7  Na   0.340108   0.512035
 Sum of Mulliken charges =  -0.00000   1.00000

 Dipole moment (field-independent basis, Debye):
    X=              0.1201    Y=             -0.4193    Z=              0.6381  Tot=              0.7730
 Quadrupole moment (field-independent basis, Debye-Ang):
   XX=            -67.6582   YY=            -73.4125   ZZ=            -60.2215
   XY=             -0.2385   XZ=              0.3770   YZ=              0.8518

 Normal termination of Gaussian 16 at Mon Nov 13 12:18:29 2023.
