 Gaussian 16, Revision B.01,
 Gaussian 16:  ES64L-G16RevB.01 20-Dec-2017

 -------------------------
 #P B3LYP/6-311+g(d) force
 -------------------------

 ------------------------------
 Gaussian input prepared by ASE
 ------------------------------
 Symbolic Z-matrix:
 Charge =  0 Multiplicity = 2

                         Standard orientation:
 ---------------------------------------------------------------------
 Center     Atomic      Atomic             Coordinates (Angstroms)
 Number     Number       Type             X           Y           Z
 ---------------------------------------------------------------------
      1         11           0        0.510654    1.169342   -0.241402
      2         11           0        3.328426    0.397951   -0.928893
      3         11           0        2.354010    0.150665    1.894261
      4         11           0        1.324725   -1.717296   -0.214484
      5         11           0       -1.422892   -0.945198   -1.137018
      6         11           0       -2.438117    1.729458   -0.232239
      7         11           0       -3.656806   -0.784922    0.859775
 ---------------------------------------------------------------------

 SCF Done:  E(UB3LYP) =  -1136.08151470     A.U. after   30 cycles

 The electronic state is 2-A.
 Alpha  occ. eigenvalues --  -38.46605 -38.45139 -38.45002 -38.43640 -38.43223
 Alpha  occ. eigenvalues --  -38.42927 -38.42596  -2.22560  -2.21126  -2.20909
 Alpha  occ. eigenvalues --   -2.19620  -2.19404  -2.19011  -2.18675  -1.16279
 Alpha  occ. eigenvalues --   -1.16230  -1.16169  -1.14844  -1.14756  -1.14723
 Alpha  occ. eigenvalues --   -1.14602  -1.14546  -1.14522  -1.13409  -1.13286
 Alpha  occ. eigenvalues --   -1.13252  -1.13114  -1.13059  -1.13037  -1.12720
 Alpha  occ. eigenvalues --   -1.12651  -1.12637  -1.12360  -1.12318  -1.12286
 Alpha  occ. eigenvalues --   -0.19800  -0.15849  -0.11068  -0.10630
 Alpha virt. eigenvalues --   -0.07600  -0.05349  -0.04766  -0.03129  -0.02803
 Alpha virt. eigenvalues --   -0.01914  -0.01769  -0.01053  -0.00610  -0.00152
 Alpha virt. eigenvalues --   -0.00008   0.00278   0.00288   0.00645   0.00787

  Beta  occ. eigenvalues --  -38.46602 -38.45094 -38.44932 -38.43620 -38.43168
  Beta  occ. eigenvalues --  -38.42898 -38.42583  -2.22558  -2.21041  -2.20778
  Beta  occ. eigenvalues --   -2.19592  -2.19310  -2.18970  -2.18658  -1.16283
  Beta  occ. eigenvalues --   -1.16200  -1.16166  -1.14791  -1.14694  -1.14664
  Beta  occ. eigenvalues --   -1.14522  -1.14452  -1.14430  -1.13369  -1.13259
  Beta  occ. eigenvalues --   -1.13215  -1.13046  -1.12986  -1.12955  -1.12673
  Beta  occ. eigenvalues --   -1.12622  -1.12573  -1.12354  -1.12307  -1.12230
  Beta  occ. eigenvalues --   -0.19137  -0.15267  -0.10413
  Beta virt. eigenvalues --   -0.07408  -0.07246  -0.05018  -0.04282  -0.02918
  Beta virt. eigenvalues --   -0.02586  -0.01446  -0.01201  -0.00692  -0.00456
  Beta virt. eigenvalues --   -0.00016   0.00138   0.00348   0.00463   0.00743

 Mulliken charges and spin densities:
               1          2
     1  Na  -1.212624  -0.106600
     2  Na   1.136676   0.142568
     3  Na   0.269805   0.300892
     4  Na  -0.172644   0.030682
     5  Na   0.255370   0.246710
     6  Na  -0.241860   0.128351
     7  Na  -0.034723   0.257397
 Sum of Mulliken charges =  -0.00000   1.00000

 Dipole moment (field-independent basis, Debye):
    X=              1.0661    Y=             -0.1636    Z=              0.0942  Tot=              1.0827
 Quadrupole moment (field-independent basis, Debye-Ang):
   XX=            -50.9282   YY=            -81.3976   ZZ=            -64.1164
   XY=              0.4039   XZ=             -5.9573   YZ=             -4.9673

 Normal termination of Gaussian 16 at Mon Nov 13 12:09:14 2023.
