 Gaussian 16, Revision B.01,
 Gaussian 16:  ES64L-G16RevB.01 20-Dec-2017

 -------------------------
 #P B3LYP/6-311+g(d) force
 -------------------------

 ------------------------------
 Gaussian input prepared by ASE
 ------------------------------
 Symbolic Z-matrix:
 Charge =  0 Multiplicity = 2

                         Standard orientation:
 ---------------------------------------------------------------------
 Center     Atomic      Atomic             Coordinates (Angstroms)
 Number     Number       Type             X           Y           Z
 ---------------------------------------------------------------------
      1         11           0       -0.400056   -2.279399    0.585722
      2         11           0       -0.071688   -0.202306    2.725801
      3         11           0       -2.532519   -0.992574   -1.088040
      4         11           0       -1.972406    1.950690   -1.016327
      5         11           0        0.370946    2.100680    0.850363
      6         11           0        2.631610    1.167242   -0.888255
      7         11           0        1.974114   -1.744334   -1.169264
 ---------------------------------------------------------------------

 SCF Done:  E(UB3LYP) =  -1136.10766689     A.U. after   19 cycles

 The electronic state is 2-A.
 Alpha  occ. eigenvalues --  -38.45984 -38.44195 -38.44128 -38.44051 -38.44035
 Alpha  occ. eigenvalues --  -38.43574 -38.43477  -2.21891  -2.20080  -2.20013
 Alpha  occ. eigenvalues --   -2.19932  -2.19918  -2.19540  -2.19442  -1.15557
 Alpha  occ. eigenvalues --   -1.15545  -1.15465  -1.13838  -1.13792  -1.13770
 Alpha  occ. eigenvalues --   -1.13710  -1.13703  -1.13643  -1.13639  -1.13626
 Alpha  occ. eigenvalues --   -1.13556  -1.13546  -1.13514  -1.13508  -1.13233
 Alpha  occ. eigenvalues --   -1.13161  -1.13146  -1.13135  -1.13075  -1.13064
 Alpha  occ. eigenvalues --   -0.18781  -0.13034  -0.12785  -0.12696
 Alpha virt. eigenvalues --   -0.05312  -0.05109  -0.04478  -0.04140  -0.03743
 Alpha virt. eigenvalues --   -0.03243  -0.00719  -0.00579  -0.00475   0.00199
 Alpha virt. eigenvalues --    0.00344   0.00414   0.00708   0.00840   0.00888

  Beta  occ. eigenvalues --  -38.45851 -38.44171 -38.44104 -38.44035 -38.44016
  Beta  occ. eigenvalues --  -38.43556 -38.43464  -2.21649  -2.20037  -2.19969
  Beta  occ. eigenvalues --   -2.19903  -2.19883  -2.19512  -2.19424  -1.15387
  Beta  occ. eigenvalues --   -1.15374  -1.15305  -1.13800  -1.13758  -1.13746
  Beta  occ. eigenvalues --   -1.13685  -1.13672  -1.13626  -1.13608  -1.13605
  Beta  occ. eigenvalues --   -1.13532  -1.13516  -1.13490  -1.13484  -1.13180
  Beta  occ. eigenvalues --   -1.13138  -1.13137  -1.13086  -1.13062  -1.13058
  Beta  occ. eigenvalues --   -0.18022  -0.12691  -0.12546
  Beta virt. eigenvalues --   -0.08722  -0.05321  -0.04576  -0.04051  -0.03537
  Beta virt. eigenvalues --   -0.03178  -0.02574  -0.00667  -0.00550  -0.00157
  Beta virt. eigenvalues --    0.00257   0.00426   0.00473   0.00714   0.00995

 Mulliken charges and spin densities:
               1          2
     1  Na  -0.210709   0.040695
     2  Na   0.410171   0.492653
     3  Na  -0.076971   0.119954
     4  Na   0.079829   0.096910
     5  Na  -0.221716   0.040192
     6  Na   0.043580   0.085538
     7  Na  -0.024184   0.124059
 Sum of Mulliken charges =  -0.00000   1.00000

 Dipole moment (field-independent basis, Debye):
    X=             -0.0266    Y=             -0.0392    Z=              0.1047  Tot=              0.1149
 Quadrupole moment (field-independent basis, Debye-Ang):
   XX=            -68.0405   YY=            -69.5437   ZZ=            -63.2034
   XY=              0.5208   XZ=             -0.0179   YZ=             -0.2922

 Normal termination of Gaussian 16 at Mon Nov 13 12:12:42 2023.
