 Gaussian 16, Revision B.01,
 Gaussian 16:  ES64L-G16RevB.01 20-Dec-2017

 -------------------------
 #P B3LYP/6-311+g(d) force
 -------------------------

 ------------------------------
 Gaussian input prepared by ASE
 ------------------------------
 Symbolic Z-matrix:
 Charge =  0 Multiplicity = 2

                         Standard orientation:
 ---------------------------------------------------------------------
 Center     Atomic      Atomic             Coordinates (Angstroms)
 Number     Number       Type             X           Y           Z
 ---------------------------------------------------------------------
      1         11           0       -1.237100   -1.051241    1.167447
      2         11           0        0.618103    2.435473   -0.544899
      3         11           0       -3.888163   -0.906983   -0.223551
      4         11           0       -1.508874    0.494935   -1.392190
      5         11           0        0.799745    0.963056    2.065343
      6         11           0        1.179188   -0.509810   -0.520605
      7         11           0        4.037101   -1.425430   -0.551546
 ---------------------------------------------------------------------

 SCF Done:  E(UB3LYP) =  -1136.09270791     A.U. after   27 cycles

 The electronic state is 2-A.
 Alpha  occ. eigenvalues --  -38.44801 -38.44703 -38.44549 -38.44246 -38.43463
 Alpha  occ. eigenvalues --  -38.43447 -38.43218  -2.20708  -2.20693  -2.20616
 Alpha  occ. eigenvalues --   -2.20332  -2.19444  -2.19376  -2.19272  -1.14536
 Alpha  occ. eigenvalues --   -1.14461  -1.14389  -1.14381  -1.14354  -1.14311
 Alpha  occ. eigenvalues --   -1.14288  -1.14202  -1.14149  -1.14054  -1.13937
 Alpha  occ. eigenvalues --   -1.13923  -1.13206  -1.13149  -1.13101  -1.13054
 Alpha  occ. eigenvalues --   -1.13035  -1.12943  -1.12912  -1.12907  -1.12846
 Alpha  occ. eigenvalues --   -0.20012  -0.14069  -0.12284  -0.11403
 Alpha virt. eigenvalues --   -0.06989  -0.04566  -0.04360  -0.03491  -0.02828
 Alpha virt. eigenvalues --   -0.02376  -0.01901  -0.01143  -0.00750  -0.00113
 Alpha virt. eigenvalues --    0.00258   0.00518   0.00556   0.00848   0.00919

  Beta  occ. eigenvalues --  -38.44798 -38.44625 -38.44491 -38.44193 -38.43449
  Beta  occ. eigenvalues --  -38.43429 -38.43194  -2.20687  -2.20568  -2.20515
  Beta  occ. eigenvalues --   -2.20238  -2.19416  -2.19340  -2.19247  -1.14470
  Beta  occ. eigenvalues --   -1.14411  -1.14360  -1.14312  -1.14284  -1.14277
  Beta  occ. eigenvalues --   -1.14201  -1.14145  -1.14056  -1.13988  -1.13875
  Beta  occ. eigenvalues --   -1.13842  -1.13188  -1.13125  -1.13058  -1.13029
  Beta  occ. eigenvalues --   -1.12966  -1.12922  -1.12894  -1.12888  -1.12827
  Beta  occ. eigenvalues --   -0.19211  -0.13894  -0.11221
  Beta virt. eigenvalues --   -0.07988  -0.06812  -0.04323  -0.03814  -0.02981
  Beta virt. eigenvalues --   -0.02409  -0.01759  -0.01715  -0.01037  -0.00366
  Beta virt. eigenvalues --   -0.00076   0.00309   0.00623   0.00712   0.00923

 Mulliken charges and spin densities:
               1          2
     1  Na   0.479105   0.221996
     2  Na  -0.301670   0.076541
     3  Na  -0.217251   0.045017
     4  Na   1.734917   0.037577
     5  Na   0.260662   0.151818
     6  Na  -1.963422   0.529242
     7  Na   0.007660  -0.062193
 Sum of Mulliken charges =  -0.00000   1.00000

 Dipole moment (field-independent basis, Debye):
    X=             -1.5027    Y=              1.0350    Z=              0.6254  Tot=              1.9289
 Quadrupole moment (field-independent basis, Debye-Ang):
   XX=            -55.0738   YY=            -72.3551   ZZ=            -67.7173
   XY=              5.3112   XZ=              2.4468   YZ=             -0.1454

 Normal termination of Gaussian 16 at Mon Nov 13 12:17:14 2023.
