 Gaussian 16, Revision B.01,
 Gaussian 16:  ES64L-G16RevB.01 20-Dec-2017

 -------------------------
 #P B3LYP/6-311+g(d) force
 -------------------------

 ------------------------------
 Gaussian input prepared by ASE
 ------------------------------
 Symbolic Z-matrix:
 Charge =  0 Multiplicity = 2

                         Standard orientation:
 ---------------------------------------------------------------------
 Center     Atomic      Atomic             Coordinates (Angstroms)
 Number     Number       Type             X           Y           Z
 ---------------------------------------------------------------------
      1         11           0        0.174435   -1.081477   -0.497413
      2         11           0       -2.548473   -1.163676   -1.753103
      3         11           0       -0.938760   -1.261001    2.288524
      4         11           0       -1.949447    0.835869    0.399392
      5         11           0        0.024658    3.093200    0.236687
      6         11           0        2.149277    1.172929   -0.662335
      7         11           0        3.088312   -1.595845   -0.011753
 ---------------------------------------------------------------------

 SCF Done:  E(UB3LYP) =  -1136.10715653     A.U. after   20 cycles

 The electronic state is 2-A.
 Alpha  occ. eigenvalues --  -38.44813 -38.44554 -38.43917 -38.43601 -38.43540
 Alpha  occ. eigenvalues --  -38.43233 -38.42868  -2.20726  -2.20470  -2.19810
 Alpha  occ. eigenvalues --   -2.19619  -2.19576  -2.19405  -2.18762  -1.14443
 Alpha  occ. eigenvalues --   -1.14360  -1.14300  -1.14181  -1.14130  -1.14048
 Alpha  occ. eigenvalues --   -1.13587  -1.13495  -1.13432  -1.13372  -1.13324
 Alpha  occ. eigenvalues --   -1.13297  -1.13248  -1.13221  -1.13184  -1.13096
 Alpha  occ. eigenvalues --   -1.13013  -1.12979  -1.12434  -1.12415  -1.12383
 Alpha  occ. eigenvalues --   -0.19223  -0.13791  -0.12278  -0.11736
 Alpha virt. eigenvalues --   -0.05555  -0.04922  -0.04437  -0.03490  -0.02941
 Alpha virt. eigenvalues --   -0.02645  -0.01508  -0.00768  -0.00418   0.00083
 Alpha virt. eigenvalues --    0.00290   0.00424   0.00677   0.00871   0.00951

  Beta  occ. eigenvalues --  -38.44708 -38.44476 -38.43921 -38.43597 -38.43520
  Beta  occ. eigenvalues --  -38.43210 -38.42871  -2.20534  -2.20326  -2.19818
  Beta  occ. eigenvalues --   -2.19590  -2.19569  -2.19373  -2.18768  -1.14315
  Beta  occ. eigenvalues --   -1.14221  -1.14170  -1.14086  -1.14030  -1.13948
  Beta  occ. eigenvalues --   -1.13590  -1.13501  -1.13431  -1.13362  -1.13317
  Beta  occ. eigenvalues --   -1.13241  -1.13211  -1.13201  -1.13183  -1.13011
  Beta  occ. eigenvalues --   -1.12992  -1.12967  -1.12439  -1.12419  -1.12380
  Beta  occ. eigenvalues --   -0.18494  -0.13508  -0.12135
  Beta virt. eigenvalues --   -0.07623  -0.05366  -0.04649  -0.04253  -0.03008
  Beta virt. eigenvalues --   -0.02192  -0.02041  -0.01280  -0.00649  -0.00104
  Beta virt. eigenvalues --    0.00138   0.00369   0.00467   0.00852   0.00918

 Mulliken charges and spin densities:
               1          2
     1  Na  -0.886248   0.562813
     2  Na   0.348744   0.225770
     3  Na  -0.081037   0.277060
     4  Na   0.502751   0.219828
     5  Na  -0.178924  -0.007889
     6  Na  -0.220152  -0.121111
     7  Na   0.514866  -0.156471
 Sum of Mulliken charges =  -0.00000   1.00000

 Dipole moment (field-independent basis, Debye):
    X=             -0.0468    Y=             -0.7779    Z=              0.3378  Tot=              0.8494
 Quadrupole moment (field-independent basis, Debye-Ang):
   XX=            -58.8231   YY=            -68.3564   ZZ=            -67.2352
   XY=             -0.8635   XZ=              1.8469   YZ=             -0.6130

 Normal termination of Gaussian 16 at Mon Nov 13 12:13:03 2023.
