 Gaussian 16, Revision B.01,
 Gaussian 16:  ES64L-G16RevB.01 20-Dec-2017

 -------------------------
 #P B3LYP/6-311+g(d) force
 -------------------------

 ------------------------------
 Gaussian input prepared by ASE
 ------------------------------
 Symbolic Z-matrix:
 Charge =  0 Multiplicity = 2

                         Standard orientation:
 ---------------------------------------------------------------------
 Center     Atomic      Atomic             Coordinates (Angstroms)
 Number     Number       Type             X           Y           Z
 ---------------------------------------------------------------------
      1         11           0        1.328453    0.052327    1.500773
      2         11           0       -1.674724    0.379160   -1.499328
      3         11           0       -2.925010   -1.891020    0.007367
      4         11           0       -1.658555    0.377651    1.502117
      5         11           0        0.059989    2.315538   -0.004593
      6         11           0        1.313045    0.040315   -1.500269
      7         11           0        3.556802   -1.273972   -0.006067
 ---------------------------------------------------------------------

 SCF Done:  E(UB3LYP) =  -1136.09980612     A.U. after   21 cycles

 The electronic state is 2-A.
 Alpha  occ. eigenvalues --  -38.44243 -38.44241 -38.44116 -38.44114 -38.43744
 Alpha  occ. eigenvalues --  -38.43170 -38.42745  -2.20341  -2.20322  -2.20225
 Alpha  occ. eigenvalues --   -2.20209  -2.19642  -2.19073  -2.18837  -1.14170
 Alpha  occ. eigenvalues --   -1.14141  -1.14097  -1.14033  -1.13971  -1.13936
 Alpha  occ. eigenvalues --   -1.13881  -1.13866  -1.13841  -1.13827  -1.13801
 Alpha  occ. eigenvalues --   -1.13755  -1.13300  -1.13297  -1.13258  -1.12754
 Alpha  occ. eigenvalues --   -1.12733  -1.12688  -1.12517  -1.12487  -1.12469
 Alpha  occ. eigenvalues --   -0.20178  -0.14285  -0.12518  -0.11750
 Alpha virt. eigenvalues --   -0.05848  -0.04668  -0.04571  -0.03629  -0.02852
 Alpha virt. eigenvalues --   -0.02564  -0.01532  -0.00739  -0.00431   0.00265
 Alpha virt. eigenvalues --    0.00338   0.00567   0.00589   0.00822   0.00941

  Beta  occ. eigenvalues --  -38.44184 -38.44182 -38.44058 -38.44055 -38.43744
  Beta  occ. eigenvalues --  -38.43171 -38.42732  -2.20237  -2.20217  -2.20122
  Beta  occ. eigenvalues --   -2.20104  -2.19643  -2.19077  -2.18823  -1.14110
  Beta  occ. eigenvalues --   -1.14041  -1.14004  -1.13964  -1.13900  -1.13867
  Beta  occ. eigenvalues --   -1.13802  -1.13797  -1.13755  -1.13754  -1.13729
  Beta  occ. eigenvalues --   -1.13665  -1.13294  -1.13289  -1.13260  -1.12757
  Beta  occ. eigenvalues --   -1.12721  -1.12692  -1.12517  -1.12487  -1.12389
  Beta  occ. eigenvalues --   -0.19335  -0.14195  -0.11484
  Beta virt. eigenvalues --   -0.08132  -0.05631  -0.04652  -0.03981  -0.02789
  Beta virt. eigenvalues --   -0.02256  -0.02116  -0.01490  -0.00664  -0.00071
  Beta virt. eigenvalues --    0.00289   0.00344   0.00673   0.00805   0.00914

 Mulliken charges and spin densities:
               1          2
     1  Na  -0.472483   0.176793
     2  Na  -0.038480   0.250830
     3  Na   0.060620  -0.108255
     4  Na  -0.061501   0.259026
     5  Na   0.367575   0.208551
     6  Na  -0.497241   0.185199
     7  Na   0.641509   0.027855
 Sum of Mulliken charges =  -0.00000   1.00000

 Dipole moment (field-independent basis, Debye):
    X=              0.4235    Y=              0.1335    Z=             -0.0014  Tot=              0.4440
 Quadrupole moment (field-independent basis, Debye-Ang):
   XX=            -62.3979   YY=            -69.9680   ZZ=            -66.1788
   XY=             -1.3277   XZ=              0.0359   YZ=             -0.0260

 Normal termination of Gaussian 16 at Mon Nov 13 12:28:38 2023.
