 Gaussian 16, Revision B.01,
 Gaussian 16:  ES64L-G16RevB.01 20-Dec-2017

 -------------------------
 #P B3LYP/6-311+g(d) force
 -------------------------

 ------------------------------
 Gaussian input prepared by ASE
 ------------------------------
 Symbolic Z-matrix:
 Charge =  0 Multiplicity = 2

                         Standard orientation:
 ---------------------------------------------------------------------
 Center     Atomic      Atomic             Coordinates (Angstroms)
 Number     Number       Type             X           Y           Z
 ---------------------------------------------------------------------
      1         11           0        3.590116   -0.590448   -0.400510
      2         11           0        0.801903   -0.212992   -0.503058
      3         11           0       -0.012144   -0.907418    1.898685
      4         11           0       -1.355483    0.391644   -1.869847
      5         11           0        0.470763    2.441038    0.431406
      6         11           0       -1.853780    0.847731    0.685646
      7         11           0       -1.641376   -1.969555   -0.242322
 ---------------------------------------------------------------------

 SCF Done:  E(UB3LYP) =  -1136.06656561     A.U. after   24 cycles

 The electronic state is 2-A.
 Alpha  occ. eigenvalues --  -38.45023 -38.44723 -38.44639 -38.43920 -38.43469
 Alpha  occ. eigenvalues --  -38.43192 -38.43162  -2.21198  -2.20855  -2.20466
 Alpha  occ. eigenvalues --   -2.20223  -2.19931  -2.19279  -2.19193  -1.15147
 Alpha  occ. eigenvalues --   -1.14963  -1.14817  -1.14713  -1.14521  -1.14423
 Alpha  occ. eigenvalues --   -1.14257  -1.14085  -1.14078  -1.13912  -1.13849
 Alpha  occ. eigenvalues --   -1.13800  -1.13578  -1.13508  -1.13503  -1.12980
 Alpha  occ. eigenvalues --   -1.12928  -1.12874  -1.12865  -1.12813  -1.12758
 Alpha  occ. eigenvalues --   -0.21127  -0.13321  -0.12593  -0.12207
 Alpha virt. eigenvalues --   -0.05905  -0.04073  -0.03597  -0.03360  -0.02917
 Alpha virt. eigenvalues --   -0.02880  -0.01426  -0.00669  -0.00340   0.00277
 Alpha virt. eigenvalues --    0.00571   0.00759   0.00797   0.00955   0.01095

  Beta  occ. eigenvalues --  -38.44939 -38.44640 -38.44633 -38.43882 -38.43433
  Beta  occ. eigenvalues --  -38.43181 -38.43147  -2.21046  -2.20707  -2.20455
  Beta  occ. eigenvalues --   -2.20163  -2.19875  -2.19258  -2.19176  -1.15058
  Beta  occ. eigenvalues --   -1.14849  -1.14723  -1.14601  -1.14399  -1.14315
  Beta  occ. eigenvalues --   -1.14243  -1.14076  -1.14071  -1.13868  -1.13797
  Beta  occ. eigenvalues --   -1.13709  -1.13507  -1.13482  -1.13431  -1.12973
  Beta  occ. eigenvalues --   -1.12865  -1.12856  -1.12845  -1.12785  -1.12742
  Beta  occ. eigenvalues --   -0.20213  -0.13023  -0.11991
  Beta virt. eigenvalues --   -0.08258  -0.05667  -0.03992  -0.03198  -0.02836
  Beta virt. eigenvalues --   -0.02348  -0.01837  -0.01333  -0.00604  -0.00101
  Beta virt. eigenvalues --    0.00330   0.00605   0.00776   0.00961   0.00991

 Mulliken charges and spin densities:
               1          2
     1  Na   0.025871  -0.107419
     2  Na  -0.442927  -0.136813
     3  Na   0.158232   0.510989
     4  Na   0.339681   0.254365
     5  Na  -0.171552   0.092601
     6  Na   0.143456   0.209588
     7  Na  -0.052762   0.176689
 Sum of Mulliken charges =  -0.00000   1.00000

 Dipole moment (field-independent basis, Debye):
    X=              0.3714    Y=              0.0667    Z=              0.0928  Tot=              0.3886
 Quadrupole moment (field-independent basis, Debye-Ang):
   XX=            -58.2153   YY=            -70.0838   ZZ=            -65.0325
   XY=              1.2395   XZ=              0.3350   YZ=              1.3322

 Normal termination of Gaussian 16 at Mon Nov 13 12:27:32 2023.
