 Gaussian 16, Revision B.01,
 Gaussian 16:  ES64L-G16RevB.01 20-Dec-2017

 -------------------------
 #P B3LYP/6-311+g(d) force
 -------------------------

 ------------------------------
 Gaussian input prepared by ASE
 ------------------------------
 Symbolic Z-matrix:
 Charge =  0 Multiplicity = 2

                         Standard orientation:
 ---------------------------------------------------------------------
 Center     Atomic      Atomic             Coordinates (Angstroms)
 Number     Number       Type             X           Y           Z
 ---------------------------------------------------------------------
      1         11           0        0.270981    1.004558   -1.115768
      2         11           0        0.432926   -0.432540    1.512401
      3         11           0        2.566825    1.528494    0.741128
      4         11           0        2.361133   -1.100515   -0.683119
      5         11           0       -0.518948   -1.887476   -0.923783
      6         11           0       -2.508659   -0.817464    1.051789
      7         11           0       -2.604258    1.704944   -0.582648
 ---------------------------------------------------------------------

 SCF Done:  E(UB3LYP) =  -1136.10006278     A.U. after   23 cycles

 The electronic state is 2-A.
 Alpha  occ. eigenvalues --  -38.44298 -38.44080 -38.43909 -38.43849 -38.43762
 Alpha  occ. eigenvalues --  -38.43346 -38.42807  -2.20293  -2.20165  -2.19950
 Alpha  occ. eigenvalues --   -2.19895  -2.19744  -2.19526  -2.18893  -1.14050
 Alpha  occ. eigenvalues --   -1.13998  -1.13958  -1.13938  -1.13864  -1.13818
 Alpha  occ. eigenvalues --   -1.13699  -1.13656  -1.13565  -1.13521  -1.13489
 Alpha  occ. eigenvalues --   -1.13479  -1.13447  -1.13386  -1.13358  -1.13211
 Alpha  occ. eigenvalues --   -1.13145  -1.13097  -1.12594  -1.12534  -1.12481
 Alpha  occ. eigenvalues --   -0.20479  -0.14597  -0.11841  -0.11656
 Alpha virt. eigenvalues --   -0.06034  -0.04951  -0.04301  -0.03348  -0.02584
 Alpha virt. eigenvalues --   -0.02281  -0.01855  -0.00771  -0.00236   0.00251
 Alpha virt. eigenvalues --    0.00443   0.00564   0.00765   0.00852   0.00927

  Beta  occ. eigenvalues --  -38.44267 -38.44058 -38.43889 -38.43838 -38.43696
  Beta  occ. eigenvalues --  -38.43292 -38.42779  -2.20239  -2.20129  -2.19866
  Beta  occ. eigenvalues --   -2.19826  -2.19727  -2.19433  -2.18849  -1.14000
  Beta  occ. eigenvalues --   -1.13968  -1.13909  -1.13907  -1.13820  -1.13773
  Beta  occ. eigenvalues --   -1.13645  -1.13583  -1.13527  -1.13469  -1.13452
  Beta  occ. eigenvalues --   -1.13442  -1.13379  -1.13373  -1.13343  -1.13152
  Beta  occ. eigenvalues --   -1.13053  -1.13033  -1.12567  -1.12484  -1.12428
  Beta  occ. eigenvalues --   -0.19728  -0.14317  -0.11511
  Beta virt. eigenvalues --   -0.07554  -0.05959  -0.04893  -0.03605  -0.03056
  Beta virt. eigenvalues --   -0.01979  -0.01738  -0.01324  -0.00651   0.00007
  Beta virt. eigenvalues --    0.00290   0.00432   0.00578   0.00831   0.00899

 Mulliken charges and spin densities:
               1          2
     1  Na  -0.641050   0.501433
     2  Na  -1.330109   0.232845
     3  Na   1.229391   0.019810
     4  Na   0.875682   0.077263
     5  Na  -0.465458   0.013281
     6  Na   1.156561   0.258071
     7  Na  -0.825017  -0.102702
 Sum of Mulliken charges =  -0.00000   1.00000

 Dipole moment (field-independent basis, Debye):
    X=              0.0888    Y=             -0.0489    Z=              0.1545  Tot=              0.1848
 Quadrupole moment (field-independent basis, Debye-Ang):
   XX=            -52.2607   YY=            -72.6541   ZZ=            -69.9153
   XY=              0.6439   XZ=             -0.8852   YZ=              1.2880

 Normal termination of Gaussian 16 at Mon Nov 13 12:28:16 2023.
