 Gaussian 16, Revision B.01,
 Gaussian 16:  ES64L-G16RevB.01 20-Dec-2017

 -------------------------
 #P B3LYP/6-311+g(d) force
 -------------------------

 ------------------------------
 Gaussian input prepared by ASE
 ------------------------------
 Symbolic Z-matrix:
 Charge =  0 Multiplicity = 2

                         Standard orientation:
 ---------------------------------------------------------------------
 Center     Atomic      Atomic             Coordinates (Angstroms)
 Number     Number       Type             X           Y           Z
 ---------------------------------------------------------------------
      1         11           0        0.571030    1.634380   -0.222192
      2         11           0       -0.229123   -0.544565    1.674961
      3         11           0        5.125875    0.168410   -0.145942
      4         11           0        2.297161   -0.804588    0.078313
      5         11           0       -0.367715   -1.006004   -1.284668
      6         11           0       -2.315628    0.854653    0.034665
      7         11           0       -5.081600   -0.302287   -0.135137
 ---------------------------------------------------------------------

 SCF Done:  E(UB3LYP) =  -1136.07771606     A.U. after   31 cycles

 The electronic state is 2-A.
 Alpha  occ. eigenvalues --  -38.47084 -38.46201 -38.44690 -38.43294 -38.43257
 Alpha  occ. eigenvalues --  -38.43168 -38.43142  -2.23141  -2.22278  -2.20808
 Alpha  occ. eigenvalues --   -2.19402  -2.19361  -2.18981  -2.18957  -1.16838
 Alpha  occ. eigenvalues --   -1.16798  -1.16794  -1.15979  -1.15939  -1.15903
 Alpha  occ. eigenvalues --   -1.14484  -1.14455  -1.14422  -1.13111  -1.13078
 Alpha  occ. eigenvalues --   -1.13076  -1.13049  -1.13032  -1.13012  -1.12635
 Alpha  occ. eigenvalues --   -1.12624  -1.12615  -1.12611  -1.12602  -1.12586
 Alpha  occ. eigenvalues --   -0.20780  -0.14201  -0.11834  -0.10992
 Alpha virt. eigenvalues --   -0.08602  -0.05663  -0.03683  -0.03232  -0.03090
 Alpha virt. eigenvalues --   -0.02039  -0.01983  -0.01788  -0.01299  -0.00985
 Alpha virt. eigenvalues --   -0.00013   0.00325   0.00362   0.00563   0.00698

  Beta  occ. eigenvalues --  -38.47036 -38.46175 -38.44606 -38.43268 -38.43232
  Beta  occ. eigenvalues --  -38.43164 -38.43139  -2.23062  -2.22238  -2.20654
  Beta  occ. eigenvalues --   -2.19360  -2.19322  -2.18973  -2.18951  -1.16791
  Beta  occ. eigenvalues --   -1.16744  -1.16681  -1.15951  -1.15921  -1.15812
  Beta  occ. eigenvalues --   -1.14384  -1.14346  -1.14306  -1.13088  -1.13060
  Beta  occ. eigenvalues --   -1.13052  -1.13020  -1.12973  -1.12937  -1.12627
  Beta  occ. eigenvalues --   -1.12619  -1.12607  -1.12600  -1.12597  -1.12578
  Beta  occ. eigenvalues --   -0.19945  -0.13923  -0.10915
  Beta virt. eigenvalues --   -0.08420  -0.07431  -0.05479  -0.03232  -0.03119
  Beta virt. eigenvalues --   -0.02690  -0.01700  -0.01328  -0.01149  -0.01078
  Beta virt. eigenvalues --   -0.00957   0.00018   0.00385   0.00473   0.00689

 Mulliken charges and spin densities:
               1          2
     1  Na   0.041214   0.394997
     2  Na   0.140686   0.201153
     3  Na   0.246097  -0.062827
     4  Na  -0.414821   0.159962
     5  Na   0.242817   0.257102
     6  Na  -0.496737   0.149240
     7  Na   0.240743  -0.099628
 Sum of Mulliken charges =  -0.00000   1.00000

 Dipole moment (field-independent basis, Debye):
    X=             -0.1032    Y=             -0.2330    Z=              0.6109  Tot=              0.6619
 Quadrupole moment (field-independent basis, Debye-Ang):
   XX=            -81.5566   YY=            -73.3570   ZZ=            -60.3517
   XY=              3.9677   XZ=             -0.3656   YZ=              1.0403

 Normal termination of Gaussian 16 at Mon Nov 13 12:15:06 2023.
