 Gaussian 16, Revision B.01,
 Gaussian 16:  ES64L-G16RevB.01 20-Dec-2017

 -------------------------
 #P B3LYP/6-311+g(d) force
 -------------------------

 ------------------------------
 Gaussian input prepared by ASE
 ------------------------------
 Symbolic Z-matrix:
 Charge =  0 Multiplicity = 2

                         Standard orientation:
 ---------------------------------------------------------------------
 Center     Atomic      Atomic             Coordinates (Angstroms)
 Number     Number       Type             X           Y           Z
 ---------------------------------------------------------------------
      1         11           0        2.678531    0.970633   -1.442550
      2         11           0       -1.375435    1.986008    0.112823
      3         11           0       -5.170191   -0.502801   -0.524124
      4         11           0       -2.459444   -0.736764    0.739553
      5         11           0        0.426993   -0.412484   -0.020218
      6         11           0        3.060407   -1.806881   -0.380774
      7         11           0        2.839139    0.502288    1.515290
 ---------------------------------------------------------------------

 SCF Done:  E(UB3LYP) =  -1136.08366492     A.U. after   35 cycles

 The electronic state is 2-A.
 Alpha  occ. eigenvalues --  -38.46928 -38.44374 -38.44096 -38.43941 -38.43607
 Alpha  occ. eigenvalues --  -38.43421 -38.42985  -2.22886  -2.20396  -2.20101
 Alpha  occ. eigenvalues --   -2.19838  -2.19815  -2.19405  -2.18803  -1.16615
 Alpha  occ. eigenvalues --   -1.16560  -1.16486  -1.14163  -1.14062  -1.13982
 Alpha  occ. eigenvalues --   -1.13835  -1.13750  -1.13686  -1.13644  -1.13532
 Alpha  occ. eigenvalues --   -1.13509  -1.13478  -1.13451  -1.13315  -1.13090
 Alpha  occ. eigenvalues --   -1.13050  -1.13034  -1.12461  -1.12447  -1.12442
 Alpha  occ. eigenvalues --   -0.19458  -0.14990  -0.11025  -0.10491
 Alpha virt. eigenvalues --   -0.07878  -0.05339  -0.04625  -0.03186  -0.02840
 Alpha virt. eigenvalues --   -0.01852  -0.01725  -0.01280  -0.01194  -0.00529
 Alpha virt. eigenvalues --   -0.00350   0.00139   0.00254   0.00476   0.00642

  Beta  occ. eigenvalues --  -38.46910 -38.44289 -38.44066 -38.43947 -38.43563
  Beta  occ. eigenvalues --  -38.43414 -38.42976  -2.22861  -2.20238  -2.20051
  Beta  occ. eigenvalues --   -2.19848  -2.19746  -2.19396  -2.18786  -1.16606
  Beta  occ. eigenvalues --   -1.16484  -1.16469  -1.14074  -1.13954  -1.13875
  Beta  occ. eigenvalues --   -1.13786  -1.13720  -1.13642  -1.13600  -1.13511
  Beta  occ. eigenvalues --   -1.13483  -1.13465  -1.13388  -1.13255  -1.13064
  Beta  occ. eigenvalues --   -1.13045  -1.13027  -1.12451  -1.12435  -1.12429
  Beta  occ. eigenvalues --   -0.18679  -0.14810  -0.10535
  Beta virt. eigenvalues --   -0.07539  -0.06925  -0.05181  -0.04030  -0.03174
  Beta virt. eigenvalues --   -0.02541  -0.01435  -0.01240  -0.01052  -0.00686
  Beta virt. eigenvalues --   -0.00361  -0.00226   0.00232   0.00366   0.00534

 Mulliken charges and spin densities:
               1          2
     1  Na   0.080217   0.621746
     2  Na  -0.024415   0.070625
     3  Na   0.065492   0.130853
     4  Na   0.198946  -0.301353
     5  Na  -1.084867   0.594216
     6  Na   0.266013  -0.175224
     7  Na   0.498614   0.059137
 Sum of Mulliken charges =  -0.00000   1.00000

 Dipole moment (field-independent basis, Debye):
    X=              2.4425    Y=              1.1644    Z=              0.7872  Tot=              2.8180
 Quadrupole moment (field-independent basis, Debye-Ang):
   XX=            -70.0292   YY=            -69.7000   ZZ=            -65.2184
   XY=             -3.2251   XZ=              6.8335   YZ=              4.3486

 Normal termination of Gaussian 16 at Mon Nov 13 12:23:30 2023.
