 Gaussian 16, Revision B.01,
 Gaussian 16:  ES64L-G16RevB.01 20-Dec-2017

 -------------------------
 #P B3LYP/6-311+g(d) force
 -------------------------

 ------------------------------
 Gaussian input prepared by ASE
 ------------------------------
 Symbolic Z-matrix:
 Charge =  0 Multiplicity = 2

                         Standard orientation:
 ---------------------------------------------------------------------
 Center     Atomic      Atomic             Coordinates (Angstroms)
 Number     Number       Type             X           Y           Z
 ---------------------------------------------------------------------
      1         11           0        0.689559   -0.995984    0.045590
      2         11           0        3.507717   -1.938775   -0.345930
      3         11           0        2.982549    0.786083    0.778824
      4         11           0        0.876185    1.769196   -1.113692
      5         11           0       -1.787940    2.464895    0.087701
      6         11           0       -2.061921   -0.359892    1.070132
      7         11           0       -4.206149   -1.725524   -0.522625
 ---------------------------------------------------------------------

 SCF Done:  E(UB3LYP) =  -1136.09305030     A.U. after   27 cycles

 The electronic state is 2-A.
 Alpha  occ. eigenvalues --  -38.45326 -38.45217 -38.44849 -38.43921 -38.43542
 Alpha  occ. eigenvalues --  -38.43353 -38.43239  -2.21194  -2.21107  -2.20839
 Alpha  occ. eigenvalues --   -2.19894  -2.19646  -2.19230  -2.19190  -1.14895
 Alpha  occ. eigenvalues --   -1.14873  -1.14847  -1.14814  -1.14786  -1.14734
 Alpha  occ. eigenvalues --   -1.14563  -1.14479  -1.14422  -1.13640  -1.13554
 Alpha  occ. eigenvalues --   -1.13508  -1.13337  -1.13289  -1.13245  -1.13004
 Alpha  occ. eigenvalues --   -1.12906  -1.12868  -1.12815  -1.12809  -1.12742
 Alpha  occ. eigenvalues --   -0.18960  -0.14848  -0.12136  -0.09723
 Alpha virt. eigenvalues --   -0.06946  -0.06586  -0.03971  -0.03348  -0.03102
 Alpha virt. eigenvalues --   -0.02376  -0.01809  -0.01076  -0.00777  -0.00273
 Alpha virt. eigenvalues --   -0.00006   0.00134   0.00344   0.00381   0.00478

  Beta  occ. eigenvalues --  -38.45330 -38.45211 -38.44809 -38.43916 -38.43474
  Beta  occ. eigenvalues --  -38.43280 -38.43224  -2.21201  -2.21099  -2.20767
  Beta  occ. eigenvalues --   -2.19889  -2.19524  -2.19214  -2.19054  -1.14905
  Beta  occ. eigenvalues --   -1.14871  -1.14840  -1.14819  -1.14762  -1.14717
  Beta  occ. eigenvalues --   -1.14516  -1.14407  -1.14378  -1.13624  -1.13538
  Beta  occ. eigenvalues --   -1.13497  -1.13244  -1.13210  -1.13165  -1.12955
  Beta  occ. eigenvalues --   -1.12889  -1.12830  -1.12724  -1.12714  -1.12666
  Beta  occ. eigenvalues --   -0.18408  -0.14493  -0.11645
  Beta virt. eigenvalues --   -0.06789  -0.06333  -0.06231  -0.03625  -0.03168
  Beta virt. eigenvalues --   -0.02793  -0.02060  -0.01521  -0.00748  -0.00550
  Beta virt. eigenvalues --   -0.00022   0.00170   0.00264   0.00468   0.00502

 Mulliken charges and spin densities:
               1          2
     1  Na  -1.279476  -0.027156
     2  Na   0.812639   0.130388
     3  Na   0.497345   0.401531
     4  Na  -0.276840   0.191128
     5  Na   0.343186   0.031018
     6  Na  -0.051497  -0.117082
     7  Na  -0.045358   0.390172
 Sum of Mulliken charges =  -0.00000   1.00000

 Dipole moment (field-independent basis, Debye):
    X=              1.7691    Y=              0.2641    Z=             -0.1279  Tot=              1.7933
 Quadrupole moment (field-independent basis, Debye-Ang):
   XX=            -70.0531   YY=            -68.9588   ZZ=            -65.3639
   XY=            -12.4656   XZ=              1.0256   YZ=              5.7392

 Normal termination of Gaussian 16 at Mon Nov 13 12:25:11 2023.
