 Gaussian 16, Revision B.01,
 Gaussian 16:  ES64L-G16RevB.01 20-Dec-2017

 -------------------------
 #P B3LYP/6-311+g(d) force
 -------------------------

 ------------------------------
 Gaussian input prepared by ASE
 ------------------------------
 Symbolic Z-matrix:
 Charge =  0 Multiplicity = 2

                         Standard orientation:
 ---------------------------------------------------------------------
 Center     Atomic      Atomic             Coordinates (Angstroms)
 Number     Number       Type             X           Y           Z
 ---------------------------------------------------------------------
      1         11           0       -0.406927   -2.649487    0.144669
      2         11           0        1.209186    3.401441    0.359814
      3         11           0       -4.203729    0.347607    1.338009
      4         11           0       -2.374361   -0.606022   -0.834843
      5         11           0       -0.090201    1.284429   -1.317184
      6         11           0        1.852937   -0.963921   -0.881969
      7         11           0        4.013096   -0.814047    1.191503
 ---------------------------------------------------------------------

 SCF Done:  E(UB3LYP) =  -1136.10081942     A.U. after   21 cycles

 The electronic state is 2-A.
 Alpha  occ. eigenvalues --  -38.44777 -38.44734 -38.44645 -38.44174 -38.43834
 Alpha  occ. eigenvalues --  -38.43735 -38.43621  -2.20657  -2.20568  -2.20473
 Alpha  occ. eigenvalues --   -2.19968  -2.19808  -2.19711  -2.19591  -1.14357
 Alpha  occ. eigenvalues --   -1.14330  -1.14294  -1.14252  -1.14187  -1.14179
 Alpha  occ. eigenvalues --   -1.14167  -1.14096  -1.14078  -1.13699  -1.13621
 Alpha  occ. eigenvalues --   -1.13601  -1.13551  -1.13484  -1.13459  -1.13447
 Alpha  occ. eigenvalues --   -1.13370  -1.13350  -1.13210  -1.13193  -1.13174
 Alpha  occ. eigenvalues --   -0.17975  -0.13948  -0.12097  -0.11327
 Alpha virt. eigenvalues --   -0.06467  -0.05325  -0.04283  -0.03712  -0.02665
 Alpha virt. eigenvalues --   -0.02432  -0.01988  -0.01057  -0.00659  -0.00572
 Alpha virt. eigenvalues --   -0.00292   0.00072   0.00428   0.00545   0.00686

  Beta  occ. eigenvalues --  -38.44765 -38.44640 -38.44559 -38.44173 -38.43827
  Beta  occ. eigenvalues --  -38.43727 -38.43598  -2.20637  -2.20393  -2.20312
  Beta  occ. eigenvalues --   -2.19967  -2.19806  -2.19706  -2.19551  -1.14334
  Beta  occ. eigenvalues --   -1.14328  -1.14272  -1.14139  -1.14068  -1.14062
  Beta  occ. eigenvalues --   -1.14060  -1.13986  -1.13968  -1.13693  -1.13620
  Beta  occ. eigenvalues --   -1.13600  -1.13543  -1.13468  -1.13451  -1.13389
  Beta  occ. eigenvalues --   -1.13377  -1.13307  -1.13185  -1.13180  -1.13131
  Beta  occ. eigenvalues --   -0.17425  -0.13001  -0.12013
  Beta virt. eigenvalues --   -0.07800  -0.06322  -0.04595  -0.04160  -0.03630
  Beta virt. eigenvalues --   -0.02500  -0.01736  -0.01648  -0.00841  -0.00443
  Beta virt. eigenvalues --   -0.00340  -0.00112   0.00249   0.00487   0.00591

 Mulliken charges and spin densities:
               1          2
     1  Na  -0.210262   0.298278
     2  Na  -0.080142   0.038548
     3  Na  -0.237408   0.458917
     4  Na   0.319724  -0.246783
     5  Na   0.120791   0.230571
     6  Na   0.317667  -0.246690
     7  Na  -0.230371   0.467159
 Sum of Mulliken charges =  -0.00000   1.00000

 Dipole moment (field-independent basis, Debye):
    X=              0.0081    Y=             -0.1072    Z=              1.3142  Tot=              1.3186
 Quadrupole moment (field-independent basis, Debye-Ang):
   XX=            -66.0852   YY=            -67.4555   ZZ=            -65.0404
   XY=              2.5010   XZ=              1.0969   YZ=              2.7813

 Normal termination of Gaussian 16 at Mon Nov 13 12:13:49 2023.
