 Gaussian 16, Revision B.01,
 Gaussian 16:  ES64L-G16RevB.01 20-Dec-2017

 -------------------------
 #P B3LYP/6-311+g(d) force
 -------------------------

 ------------------------------
 Gaussian input prepared by ASE
 ------------------------------
 Symbolic Z-matrix:
 Charge =  0 Multiplicity = 2

                         Standard orientation:
 ---------------------------------------------------------------------
 Center     Atomic      Atomic             Coordinates (Angstroms)
 Number     Number       Type             X           Y           Z
 ---------------------------------------------------------------------
      1         11           0       -0.266893   -0.427909   -1.614691
      2         11           0       -0.831473   -1.234225    1.292516
      3         11           0       -2.912191   -0.181643   -0.439906
      4         11           0       -0.919045    1.746344    0.432323
      5         11           0        1.301421    0.551094    1.615757
      6         11           0        1.827642    1.298340   -1.007783
      7         11           0        1.800539   -1.752002   -0.278216
 ---------------------------------------------------------------------

 SCF Done:  E(UB3LYP) =  -1136.08258913     A.U. after   23 cycles

 The electronic state is 2-A.
 Alpha  occ. eigenvalues --  -38.44430 -38.44323 -38.44246 -38.43874 -38.43719
 Alpha  occ. eigenvalues --  -38.43085 -38.42781  -2.20645  -2.20523  -2.20340
 Alpha  occ. eigenvalues --   -2.19988  -2.19899  -2.19156  -2.18951  -1.14480
 Alpha  occ. eigenvalues --   -1.14421  -1.14390  -1.14274  -1.14249  -1.14176
 Alpha  occ. eigenvalues --   -1.14053  -1.13972  -1.13934  -1.13622  -1.13604
 Alpha  occ. eigenvalues --   -1.13580  -1.13537  -1.13496  -1.13464  -1.12859
 Alpha  occ. eigenvalues --   -1.12806  -1.12735  -1.12671  -1.12603  -1.12523
 Alpha  occ. eigenvalues --   -0.21540  -0.14127  -0.12989  -0.11994
 Alpha virt. eigenvalues --   -0.05473  -0.04261  -0.03901  -0.03832  -0.03038
 Alpha virt. eigenvalues --   -0.02907  -0.01169  -0.00377  -0.00302   0.00306
 Alpha virt. eigenvalues --    0.00756   0.00959   0.00998   0.01064   0.01089

  Beta  occ. eigenvalues --  -38.44359 -38.44315 -38.44167 -38.43840 -38.43662
  Beta  occ. eigenvalues --  -38.43074 -38.42762  -2.20519  -2.20385  -2.20326
  Beta  occ. eigenvalues --   -2.19929  -2.19801  -2.19142  -2.18924  -1.14393
  Beta  occ. eigenvalues --   -1.14314  -1.14299  -1.14203  -1.14162  -1.14075
  Beta  occ. eigenvalues --   -1.14023  -1.13960  -1.13889  -1.13573  -1.13539
  Beta  occ. eigenvalues --   -1.13517  -1.13490  -1.13411  -1.13387  -1.12849
  Beta  occ. eigenvalues --   -1.12767  -1.12718  -1.12652  -1.12550  -1.12493
  Beta  occ. eigenvalues --   -0.20689  -0.13863  -0.11745
  Beta virt. eigenvalues --   -0.08534  -0.05411  -0.03910  -0.03470  -0.03292
  Beta virt. eigenvalues --   -0.02250  -0.02079  -0.01115  -0.00325  -0.00090
  Beta virt. eigenvalues --    0.00337   0.00832   0.00993   0.01063   0.01102

 Mulliken charges and spin densities:
               1          2
     1  Na   0.030033   0.475333
     2  Na  -0.543334   0.145360
     3  Na   0.893636  -0.010255
     4  Na  -0.911751   0.116609
     5  Na   0.793788   0.321553
     6  Na   0.028855  -0.027012
     7  Na  -0.291227  -0.021588
 Sum of Mulliken charges =  -0.00000   1.00000

 Dipole moment (field-independent basis, Debye):
    X=             -0.2259    Y=             -0.0957    Z=             -0.1278  Tot=              0.2766
 Quadrupole moment (field-independent basis, Debye-Ang):
   XX=            -57.7305   YY=            -74.7440   ZZ=            -64.6601
   XY=             -0.0366   XZ=              0.1187   YZ=             -1.1718

 Normal termination of Gaussian 16 at Mon Nov 13 12:09:56 2023.
