 Gaussian 16, Revision B.01,
 Gaussian 16:  ES64L-G16RevB.01 20-Dec-2017

 -------------------------
 #P B3LYP/6-311+g(d) force
 -------------------------

 ------------------------------
 Gaussian input prepared by ASE
 ------------------------------
 Symbolic Z-matrix:
 Charge =  0 Multiplicity = 2

                         Standard orientation:
 ---------------------------------------------------------------------
 Center     Atomic      Atomic             Coordinates (Angstroms)
 Number     Number       Type             X           Y           Z
 ---------------------------------------------------------------------
      1         11           0        2.105394   -1.050827   -0.000399
      2         11           0       -0.984273    1.972244   -0.000746
      3         11           0        1.590823    1.645512    0.000662
      4         11           0       -2.251112   -0.291926    0.000460
      5         11           0       -0.026029   -0.066931   -1.595871
      6         11           0       -0.026000   -0.067011    1.596002
      7         11           0       -0.408803   -2.141061   -0.000108
 ---------------------------------------------------------------------

 SCF Done:  E(UB3LYP) =  -1136.02400065     A.U. after   17 cycles

 The electronic state is 2-A.
 Alpha  occ. eigenvalues --  -38.44642 -38.44642 -38.44562 -38.44485 -38.44476
 Alpha  occ. eigenvalues --  -38.44216 -38.44035  -2.21159  -2.21113  -2.20891
 Alpha  occ. eigenvalues --   -2.20797  -2.20738  -2.20449  -2.20241  -1.15455
 Alpha  occ. eigenvalues --   -1.15190  -1.15050  -1.15022  -1.14972  -1.14926
 Alpha  occ. eigenvalues --   -1.14770  -1.14659  -1.14441  -1.14322  -1.14306
 Alpha  occ. eigenvalues --   -1.14298  -1.14220  -1.14197  -1.14187  -1.14083
 Alpha  occ. eigenvalues --   -1.13991  -1.13897  -1.13839  -1.13818  -1.13678
 Alpha  occ. eigenvalues --   -0.22790  -0.13971  -0.13740  -0.12575
 Alpha virt. eigenvalues --   -0.05153  -0.04310  -0.04230  -0.03575  -0.03481
 Alpha virt. eigenvalues --   -0.02556  -0.00726  -0.00566  -0.00037   0.00325
 Alpha virt. eigenvalues --    0.00960   0.01026   0.01145   0.01241   0.01301

  Beta  occ. eigenvalues --  -38.44545 -38.44544 -38.44543 -38.44466 -38.44456
  Beta  occ. eigenvalues --  -38.44201 -38.44021  -2.21012  -2.20938  -2.20844
  Beta  occ. eigenvalues --   -2.20771  -2.20709  -2.20428  -2.20223  -1.15401
  Beta  occ. eigenvalues --   -1.15132  -1.15005  -1.14930  -1.14900  -1.14803
  Beta  occ. eigenvalues --   -1.14652  -1.14619  -1.14374  -1.14256  -1.14223
  Beta  occ. eigenvalues --   -1.14203  -1.14202  -1.14175  -1.14085  -1.14071
  Beta  occ. eigenvalues --   -1.13909  -1.13888  -1.13830  -1.13743  -1.13673
  Beta  occ. eigenvalues --   -0.21963  -0.13544  -0.13313
  Beta virt. eigenvalues --   -0.08247  -0.05220  -0.04272  -0.04197  -0.02559
  Beta virt. eigenvalues --   -0.02470  -0.01474  -0.00670  -0.00519   0.00093
  Beta virt. eigenvalues --    0.00348   0.00931   0.00999   0.01188   0.01273

 Mulliken charges and spin densities:
               1          2
     1  Na   0.192769   0.012835
     2  Na   0.315765   0.081085
     3  Na   0.212393   0.042412
     4  Na   0.243397   0.036478
     5  Na  -0.642307   0.384068
     6  Na  -0.641961   0.384230
     7  Na   0.319943   0.058892
 Sum of Mulliken charges =  -0.00000   1.00000

 Dipole moment (field-independent basis, Debye):
    X=              0.2642    Y=              0.0365    Z=              0.0003  Tot=              0.2667
 Quadrupole moment (field-independent basis, Debye-Ang):
   XX=            -63.9474   YY=            -66.3440   ZZ=            -69.6423
   XY=             -0.1324   XZ=             -0.0001   YZ=              0.0003

 Normal termination of Gaussian 16 at Mon Nov 13 12:09:33 2023.
