 Gaussian 16, Revision B.01,
 Gaussian 16:  ES64L-G16RevB.01 20-Dec-2017

 -------------------------
 #P B3LYP/6-311+g(d) force
 -------------------------

 ------------------------------
 Gaussian input prepared by ASE
 ------------------------------
 Symbolic Z-matrix:
 Charge =  0 Multiplicity = 2

                         Standard orientation:
 ---------------------------------------------------------------------
 Center     Atomic      Atomic             Coordinates (Angstroms)
 Number     Number       Type             X           Y           Z
 ---------------------------------------------------------------------
      1         11           0        1.020404    0.739486   -1.096171
      2         11           0       -3.088631   -0.086483   -0.925455
      3         11           0       -1.338995    2.073553    0.208157
      4         11           0       -1.927229   -0.394310    1.810710
      5         11           0       -0.601032   -1.725302   -0.530802
      6         11           0        2.313596   -1.648088    0.170452
      7         11           0        3.621887    1.041145    0.363109
 ---------------------------------------------------------------------

 SCF Done:  E(UB3LYP) =  -1136.09486457     A.U. after   28 cycles

 The electronic state is 2-A.
 Alpha  occ. eigenvalues --  -38.45861 -38.44996 -38.44245 -38.43988 -38.43572
 Alpha  occ. eigenvalues --  -38.43410 -38.42410  -2.21834  -2.20880  -2.20258
 Alpha  occ. eigenvalues --   -2.19964  -2.19663  -2.19394  -2.18493  -1.15551
 Alpha  occ. eigenvalues --   -1.15493  -1.15471  -1.14600  -1.14543  -1.14500
 Alpha  occ. eigenvalues --   -1.13954  -1.13898  -1.13868  -1.13732  -1.13611
 Alpha  occ. eigenvalues --   -1.13588  -1.13404  -1.13316  -1.13276  -1.13060
 Alpha  occ. eigenvalues --   -1.13031  -1.13011  -1.12180  -1.12150  -1.12121
 Alpha  occ. eigenvalues --   -0.19774  -0.15235  -0.11428  -0.10840
 Alpha virt. eigenvalues --   -0.07308  -0.05353  -0.04232  -0.03220  -0.02670
 Alpha virt. eigenvalues --   -0.02093  -0.01990  -0.00941  -0.00433  -0.00143
 Alpha virt. eigenvalues --    0.00144   0.00219   0.00445   0.00763   0.00796

  Beta  occ. eigenvalues --  -38.45847 -38.44985 -38.44164 -38.43985 -38.43527
  Beta  occ. eigenvalues --  -38.43387 -38.42383  -2.21817  -2.20859  -2.20109
  Beta  occ. eigenvalues --   -2.19960  -2.19585  -2.19360  -2.18450  -1.15545
  Beta  occ. eigenvalues --   -1.15479  -1.15410  -1.14588  -1.14523  -1.14486
  Beta  occ. eigenvalues --   -1.13861  -1.13792  -1.13758  -1.13721  -1.13607
  Beta  occ. eigenvalues --   -1.13577  -1.13355  -1.13264  -1.13197  -1.13039
  Beta  occ. eigenvalues --   -1.13011  -1.12938  -1.12159  -1.12130  -1.12032
  Beta  occ. eigenvalues --   -0.19031  -0.14914  -0.11216
  Beta virt. eigenvalues --   -0.07090  -0.06859  -0.05286  -0.03586  -0.03169
  Beta virt. eigenvalues --   -0.02555  -0.01462  -0.01121  -0.00892  -0.00106
  Beta virt. eigenvalues --   -0.00061   0.00211   0.00230   0.00647   0.00797

 Mulliken charges and spin densities:
               1          2
     1  Na  -0.112507  -0.163574
     2  Na   1.109637   0.138054
     3  Na  -0.060277   0.238819
     4  Na  -0.705061   0.346800
     5  Na  -0.246262   0.381330
     6  Na  -0.284086  -0.007760
     7  Na   0.298557   0.066331
 Sum of Mulliken charges =  -0.00000   1.00000

 Dipole moment (field-independent basis, Debye):
    X=              0.1329    Y=              0.0877    Z=             -0.0317  Tot=              0.1624
 Quadrupole moment (field-independent basis, Debye-Ang):
   XX=            -48.0547   YY=            -76.1624   ZZ=            -70.6815
   XY=              1.0162   XZ=              6.0782   YZ=              0.5826

 Normal termination of Gaussian 16 at Mon Nov 13 12:08:01 2023.
