 Gaussian 16, Revision B.01,
 Gaussian 16:  ES64L-G16RevB.01 20-Dec-2017

 -------------------------
 #P B3LYP/6-311+g(d) force
 -------------------------

 ------------------------------
 Gaussian input prepared by ASE
 ------------------------------
 Symbolic Z-matrix:
 Charge =  0 Multiplicity = 2

                         Standard orientation:
 ---------------------------------------------------------------------
 Center     Atomic      Atomic             Coordinates (Angstroms)
 Number     Number       Type             X           Y           Z
 ---------------------------------------------------------------------
      1         11           0        0.509249    1.509721   -0.484100
      2         11           0        0.496345   -1.492761   -0.521543
      3         11           0        2.997322    0.006896   -1.213748
      4         11           0        2.001533   -0.024358    1.614569
      5         11           0       -0.999025   -0.011178    1.612949
      6         11           0       -2.508787   -1.495718   -0.512032
      7         11           0       -2.496637    1.507397   -0.496095
 ---------------------------------------------------------------------

 SCF Done:  E(UB3LYP) =  -1136.09244176     A.U. after   25 cycles

 The electronic state is 2-A.
 Alpha  occ. eigenvalues --  -38.44980 -38.44623 -38.43907 -38.43713 -38.43707
 Alpha  occ. eigenvalues --  -38.42899 -38.42876  -2.20976  -2.20712  -2.20101
 Alpha  occ. eigenvalues --   -2.19703  -2.19686  -2.19055  -2.19024  -1.14716
 Alpha  occ. eigenvalues --   -1.14645  -1.14589  -1.14487  -1.14311  -1.14298
 Alpha  occ. eigenvalues --   -1.13871  -1.13823  -1.13696  -1.13460  -1.13392
 Alpha  occ. eigenvalues --   -1.13363  -1.13331  -1.13314  -1.13215  -1.12871
 Alpha  occ. eigenvalues --   -1.12714  -1.12695  -1.12665  -1.12634  -1.12586
 Alpha  occ. eigenvalues --   -0.20781  -0.15055  -0.12185  -0.11138
 Alpha virt. eigenvalues --   -0.06491  -0.04715  -0.04619  -0.03288  -0.02287
 Alpha virt. eigenvalues --   -0.02172  -0.02112  -0.00795  -0.00303   0.00173
 Alpha virt. eigenvalues --    0.00415   0.00651   0.00664   0.00903   0.00906

  Beta  occ. eigenvalues --  -38.44937 -38.44557 -38.43836 -38.43706 -38.43700
  Beta  occ. eigenvalues --  -38.42876 -38.42852  -2.20896  -2.20599  -2.19977
  Beta  occ. eigenvalues --   -2.19691  -2.19674  -2.19019  -2.18988  -1.14670
  Beta  occ. eigenvalues --   -1.14572  -1.14531  -1.14390  -1.14220  -1.14214
  Beta  occ. eigenvalues --   -1.13803  -1.13711  -1.13621  -1.13439  -1.13380
  Beta  occ. eigenvalues --   -1.13353  -1.13305  -1.13296  -1.13203  -1.12855
  Beta  occ. eigenvalues --   -1.12652  -1.12648  -1.12616  -1.12613  -1.12541
  Beta  occ. eigenvalues --   -0.19946  -0.14823  -0.10944
  Beta virt. eigenvalues --   -0.07872  -0.06288  -0.04487  -0.04102  -0.02898
  Beta virt. eigenvalues --   -0.02037  -0.01554  -0.01498  -0.00314  -0.00289
  Beta virt. eigenvalues --    0.00225   0.00506   0.00672   0.00781   0.00905

 Mulliken charges and spin densities:
               1          2
     1  Na  -1.431277   0.512141
     2  Na  -1.460927   0.510842
     3  Na   2.429659  -0.142661
     4  Na   0.147023  -0.009676
     5  Na   0.251490   0.058030
     6  Na   0.053173   0.038091
     7  Na   0.010859   0.033232
 Sum of Mulliken charges =  -0.00000   1.00000

 Dipole moment (field-independent basis, Debye):
    X=              0.6310    Y=             -0.0002    Z=             -0.1248  Tot=              0.6433
 Quadrupole moment (field-independent basis, Debye-Ang):
   XX=            -48.1892   YY=            -80.5057   ZZ=            -65.6768
   XY=             -0.0174   XZ=              0.5032   YZ=             -0.1318

 Normal termination of Gaussian 16 at Mon Nov 13 12:24:18 2023.
