 Gaussian 16, Revision B.01,
 Gaussian 16:  ES64L-G16RevB.01 20-Dec-2017

 -------------------------
 #P B3LYP/6-311+g(d) force
 -------------------------

 ------------------------------
 Gaussian input prepared by ASE
 ------------------------------
 Symbolic Z-matrix:
 Charge =  0 Multiplicity = 2

                         Standard orientation:
 ---------------------------------------------------------------------
 Center     Atomic      Atomic             Coordinates (Angstroms)
 Number     Number       Type             X           Y           Z
 ---------------------------------------------------------------------
      1         11           0       -0.792079   -0.810965    1.744941
      2         11           0       -0.090098   -2.094943   -0.870449
      3         11           0       -2.860295   -1.038247   -0.417114
      4         11           0       -2.555297    1.896051   -0.989135
      5         11           0       -0.110455    1.940615    0.755470
      6         11           0        1.877927   -0.290899    0.497655
      7         11           0        4.530297    0.398388   -0.721368
 ---------------------------------------------------------------------

 SCF Done:  E(UB3LYP) =  -1136.09910856     A.U. after   22 cycles

 The electronic state is 2-A.
 Alpha  occ. eigenvalues --  -38.44971 -38.44576 -38.44196 -38.44030 -38.43641
 Alpha  occ. eigenvalues --  -38.43509 -38.43235  -2.20796  -2.20682  -2.20189
 Alpha  occ. eigenvalues --   -2.20004  -2.19545  -2.19490  -2.19301  -1.14476
 Alpha  occ. eigenvalues --   -1.14421  -1.14416  -1.14410  -1.14382  -1.14300
 Alpha  occ. eigenvalues --   -1.13910  -1.13852  -1.13840  -1.13709  -1.13617
 Alpha  occ. eigenvalues --   -1.13591  -1.13312  -1.13239  -1.13195  -1.13173
 Alpha  occ. eigenvalues --   -1.13132  -1.13045  -1.12986  -1.12944  -1.12888
 Alpha  occ. eigenvalues --   -0.19526  -0.14208  -0.12092  -0.11611
 Alpha virt. eigenvalues --   -0.06860  -0.04650  -0.04178  -0.03744  -0.02698
 Alpha virt. eigenvalues --   -0.02459  -0.02040  -0.00922  -0.00617  -0.00073
 Alpha virt. eigenvalues --    0.00042   0.00111   0.00425   0.00795   0.00899

  Beta  occ. eigenvalues --  -38.44894 -38.44515 -38.44165 -38.44017 -38.43619
  Beta  occ. eigenvalues --  -38.43480 -38.43216  -2.20652  -2.20577  -2.20136
  Beta  occ. eigenvalues --   -2.19980  -2.19506  -2.19442  -2.19282  -1.14383
  Beta  occ. eigenvalues --   -1.14343  -1.14318  -1.14311  -1.14308  -1.14214
  Beta  occ. eigenvalues --   -1.13873  -1.13806  -1.13799  -1.13688  -1.13591
  Beta  occ. eigenvalues --   -1.13576  -1.13282  -1.13202  -1.13163  -1.13141
  Beta  occ. eigenvalues --   -1.13085  -1.13015  -1.12956  -1.12894  -1.12861
  Beta  occ. eigenvalues --   -0.18910  -0.13402  -0.11989
  Beta virt. eigenvalues --   -0.07921  -0.06544  -0.04376  -0.03666  -0.03577
  Beta virt. eigenvalues --   -0.02356  -0.02029  -0.01497  -0.00685  -0.00305
  Beta virt. eigenvalues --    0.00069   0.00132   0.00267   0.00514   0.00841

 Mulliken charges and spin densities:
               1          2
     1  Na  -0.382995   0.052200
     2  Na   0.384937  -0.049674
     3  Na   0.500336   0.494331
     4  Na  -0.316681  -0.098631
     5  Na   0.395376   0.147211
     6  Na  -0.933178   0.158175
     7  Na   0.352205   0.296387
 Sum of Mulliken charges =  -0.00000   1.00000

 Dipole moment (field-independent basis, Debye):
    X=              0.0527    Y=             -0.2238    Z=             -0.1666  Tot=              0.2840
 Quadrupole moment (field-independent basis, Debye-Ang):
   XX=            -58.8205   YY=            -73.4668   ZZ=            -65.7712
   XY=              2.0946   XZ=             -3.0383   YZ=             -1.2156

 Normal termination of Gaussian 16 at Mon Nov 13 12:08:24 2023.
