 Gaussian 16, Revision B.01,
 Gaussian 16:  ES64L-G16RevB.01 20-Dec-2017

 -------------------------
 #P B3LYP/6-311+g(d) force
 -------------------------

 ------------------------------
 Gaussian input prepared by ASE
 ------------------------------
 Symbolic Z-matrix:
 Charge =  0 Multiplicity = 2

                         Standard orientation:
 ---------------------------------------------------------------------
 Center     Atomic      Atomic             Coordinates (Angstroms)
 Number     Number       Type             X           Y           Z
 ---------------------------------------------------------------------
      1         11           0        0.876059   -1.124235    0.989733
      2         11           0       -0.989854   -0.617777   -1.313600
      3         11           0       -3.774104   -0.910946   -0.244267
      4         11           0       -1.657850    0.433002    1.401631
      5         11           0       -0.355087    2.234668   -0.618440
      6         11           0        2.393099    1.347211    0.207031
      7         11           0        3.507738   -1.361924   -0.422088
 ---------------------------------------------------------------------

 SCF Done:  E(UB3LYP) =  -1136.09603736     A.U. after   25 cycles

 The electronic state is 2-A.
 Alpha  occ. eigenvalues --  -38.44865 -38.44755 -38.44445 -38.44009 -38.43868
 Alpha  occ. eigenvalues --  -38.43794 -38.42397  -2.20822  -2.20753  -2.20431
 Alpha  occ. eigenvalues --   -2.19952  -2.19912  -2.19903  -2.18404  -1.14589
 Alpha  occ. eigenvalues --   -1.14579  -1.14472  -1.14446  -1.14360  -1.14304
 Alpha  occ. eigenvalues --   -1.14178  -1.14109  -1.14085  -1.13777  -1.13649
 Alpha  occ. eigenvalues --   -1.13608  -1.13567  -1.13556  -1.13536  -1.13525
 Alpha  occ. eigenvalues --   -1.13482  -1.13418  -1.12094  -1.12060  -1.12021
 Alpha  occ. eigenvalues --   -0.19886  -0.14889  -0.11609  -0.10862
 Alpha virt. eigenvalues --   -0.07334  -0.05153  -0.03956  -0.03262  -0.02950
 Alpha virt. eigenvalues --   -0.02065  -0.01958  -0.01187  -0.00385  -0.00078
 Alpha virt. eigenvalues --    0.00022   0.00390   0.00539   0.00778   0.00830

  Beta  occ. eigenvalues --  -38.44849 -38.44713 -38.44440 -38.44000 -38.43814
  Beta  occ. eigenvalues --  -38.43732 -38.42380  -2.20750  -2.20725  -2.20425
  Beta  occ. eigenvalues --   -2.19897  -2.19856  -2.19797  -2.18377  -1.14553
  Beta  occ. eigenvalues --   -1.14509  -1.14422  -1.14410  -1.14334  -1.14267
  Beta  occ. eigenvalues --   -1.14173  -1.14102  -1.14059  -1.13702  -1.13598
  Beta  occ. eigenvalues --   -1.13557  -1.13542  -1.13507  -1.13485  -1.13463
  Beta  occ. eigenvalues --   -1.13412  -1.13334  -1.12079  -1.12040  -1.11979
  Beta  occ. eigenvalues --   -0.19147  -0.14621  -0.11431
  Beta virt. eigenvalues --   -0.07178  -0.06782  -0.05047  -0.03332  -0.03173
  Beta virt. eigenvalues --   -0.02803  -0.01559  -0.01215  -0.00885  -0.00061
  Beta virt. eigenvalues --   -0.00034   0.00074   0.00453   0.00720   0.00823

 Mulliken charges and spin densities:
               1          2
     1  Na  -0.545305   0.146606
     2  Na  -0.548400   0.484318
     3  Na   0.326281   0.043764
     4  Na   0.178906  -0.089548
     5  Na  -0.073405   0.161602
     6  Na  -0.194301   0.138938
     7  Na   0.856223   0.114321
 Sum of Mulliken charges =  -0.00000   1.00000

 Dipole moment (field-independent basis, Debye):
    X=             -0.2384    Y=              0.1834    Z=              0.0273  Tot=              0.3021
 Quadrupole moment (field-independent basis, Debye-Ang):
   XX=            -49.9943   YY=            -72.6689   ZZ=            -72.6202
   XY=              0.4674   XZ=             -2.5978   YZ=              2.9752

 Normal termination of Gaussian 16 at Mon Nov 13 12:14:14 2023.
