 Gaussian 16, Revision B.01,
 Gaussian 16:  ES64L-G16RevB.01 20-Dec-2017

 -------------------------
 #P B3LYP/6-311+g(d) force
 -------------------------

 ------------------------------
 Gaussian input prepared by ASE
 ------------------------------
 Symbolic Z-matrix:
 Charge =  0 Multiplicity = 2

                         Standard orientation:
 ---------------------------------------------------------------------
 Center     Atomic      Atomic             Coordinates (Angstroms)
 Number     Number       Type             X           Y           Z
 ---------------------------------------------------------------------
      1         11           0       -0.197345   -0.109214   -1.521154
      2         11           0        0.136464   -2.154904    0.220752
      3         11           0       -2.521524   -0.952112   -0.044605
      4         11           0       -1.561497    1.814685    0.119066
      5         11           0        1.335654    1.787443   -0.352108
      6         11           0        0.327534    0.336588    1.718976
      7         11           0        2.480715   -0.722487   -0.140927
 ---------------------------------------------------------------------

 SCF Done:  E(UB3LYP) =  -1136.07391772     A.U. after   19 cycles

 The electronic state is 2-A.
 Alpha  occ. eigenvalues --  -38.44026 -38.44000 -38.43988 -38.43880 -38.43836
 Alpha  occ. eigenvalues --  -38.43506 -38.43474  -2.20420  -2.20263  -2.20128
 Alpha  occ. eigenvalues --   -2.20040  -2.19925  -2.19683  -2.19602  -1.14420
 Alpha  occ. eigenvalues --   -1.14303  -1.14171  -1.14136  -1.14010  -1.13985
 Alpha  occ. eigenvalues --   -1.13897  -1.13817  -1.13682  -1.13652  -1.13622
 Alpha  occ. eigenvalues --   -1.13587  -1.13549  -1.13516  -1.13494  -1.13293
 Alpha  occ. eigenvalues --   -1.13271  -1.13252  -1.13211  -1.13196  -1.13145
 Alpha  occ. eigenvalues --   -0.21773  -0.14061  -0.13077  -0.12008
 Alpha virt. eigenvalues --   -0.05288  -0.04451  -0.04135  -0.03566  -0.03066
 Alpha virt. eigenvalues --   -0.02519  -0.01161  -0.00539  -0.00026   0.00348
 Alpha virt. eigenvalues --    0.00701   0.00780   0.01019   0.01144   0.01159

  Beta  occ. eigenvalues --  -38.43974 -38.43941 -38.43908 -38.43873 -38.43813
  Beta  occ. eigenvalues --  -38.43489 -38.43461  -2.20272  -2.20122  -2.20088
  Beta  occ. eigenvalues --   -2.20001  -2.19917  -2.19658  -2.19585  -1.14355
  Beta  occ. eigenvalues --   -1.14209  -1.14090  -1.14049  -1.13967  -1.13914
  Beta  occ. eigenvalues --   -1.13795  -1.13755  -1.13644  -1.13613  -1.13595
  Beta  occ. eigenvalues --   -1.13549  -1.13501  -1.13468  -1.13438  -1.13272
  Beta  occ. eigenvalues --   -1.13245  -1.13192  -1.13184  -1.13140  -1.13140
  Beta  occ. eigenvalues --   -0.20959  -0.13692  -0.12720
  Beta virt. eigenvalues --   -0.07768  -0.05302  -0.04434  -0.04110  -0.02622
  Beta virt. eigenvalues --   -0.02163  -0.01415  -0.01083  -0.00499   0.00118
  Beta virt. eigenvalues --    0.00386   0.00680   0.00760   0.01043   0.01145

 Mulliken charges and spin densities:
               1          2
     1  Na  -0.666962   0.284690
     2  Na   0.392021   0.129808
     3  Na  -0.008609  -0.003751
     4  Na   0.316484   0.056863
     5  Na   0.291206   0.047787
     6  Na  -0.439942   0.498301
     7  Na   0.115802  -0.013698
 Sum of Mulliken charges =  -0.00000   1.00000

 Dipole moment (field-independent basis, Debye):
    X=             -0.2019    Y=             -0.0715    Z=              0.2734  Tot=              0.3473
 Quadrupole moment (field-independent basis, Debye-Ang):
   XX=            -58.4783   YY=            -68.2987   ZZ=            -70.4115
   XY=             -0.2124   XZ=             -0.9030   YZ=             -0.5952

 Normal termination of Gaussian 16 at Mon Nov 13 12:27:06 2023.
