 Gaussian 16, Revision B.01,
 Gaussian 16:  ES64L-G16RevB.01 20-Dec-2017

 -------------------------
 #P B3LYP/6-311+g(d) force
 -------------------------

 ------------------------------
 Gaussian input prepared by ASE
 ------------------------------
 Symbolic Z-matrix:
 Charge =  0 Multiplicity = 2

                         Standard orientation:
 ---------------------------------------------------------------------
 Center     Atomic      Atomic             Coordinates (Angstroms)
 Number     Number       Type             X           Y           Z
 ---------------------------------------------------------------------
      1         11           0       -0.258670   -0.610469   -1.310649
      2         11           0       -0.561931   -0.490286    1.677530
      3         11           0       -2.874842   -1.308038   -0.035697
      4         11           0       -1.926488    1.530814   -0.058966
      5         11           0        0.905321    2.121672   -0.851775
      6         11           0        2.254196    0.494820    1.289860
      7         11           0        2.462413   -1.738513   -0.710302
 ---------------------------------------------------------------------

 SCF Done:  E(UB3LYP) =  -1136.10461773     A.U. after   22 cycles

 The electronic state is 2-A.
 Alpha  occ. eigenvalues --  -38.44228 -38.44107 -38.44019 -38.43909 -38.43511
 Alpha  occ. eigenvalues --  -38.43489 -38.42730  -2.20233  -2.20123  -2.20088
 Alpha  occ. eigenvalues --   -2.19812  -2.19697  -2.19588  -2.18732  -1.14028
 Alpha  occ. eigenvalues --   -1.13974  -1.13908  -1.13878  -1.13792  -1.13780
 Alpha  occ. eigenvalues --   -1.13758  -1.13709  -1.13621  -1.13579  -1.13453
 Alpha  occ. eigenvalues --   -1.13441  -1.13416  -1.13313  -1.13296  -1.13234
 Alpha  occ. eigenvalues --   -1.13202  -1.13168  -1.12423  -1.12382  -1.12335
 Alpha  occ. eigenvalues --   -0.20347  -0.14389  -0.11814  -0.11775
 Alpha virt. eigenvalues --   -0.05823  -0.04966  -0.04253  -0.03417  -0.02643
 Alpha virt. eigenvalues --   -0.02552  -0.01686  -0.00809  -0.00205   0.00299
 Alpha virt. eigenvalues --    0.00465   0.00559   0.00792   0.00892   0.00922

  Beta  occ. eigenvalues --  -38.44188 -38.44103 -38.43945 -38.43891 -38.43500
  Beta  occ. eigenvalues --  -38.43423 -38.42715  -2.20162  -2.20088  -2.19985
  Beta  occ. eigenvalues --   -2.19781  -2.19589  -2.19566  -2.18709  -1.13961
  Beta  occ. eigenvalues --   -1.13921  -1.13851  -1.13835  -1.13756  -1.13740
  Beta  occ. eigenvalues --   -1.13722  -1.13633  -1.13547  -1.13532  -1.13423
  Beta  occ. eigenvalues --   -1.13393  -1.13389  -1.13237  -1.13223  -1.13198
  Beta  occ. eigenvalues --   -1.13186  -1.13115  -1.12400  -1.12360  -1.12306
  Beta  occ. eigenvalues --   -0.19592  -0.14129  -0.11553
  Beta virt. eigenvalues --   -0.07629  -0.05765  -0.04863  -0.03580  -0.03124
  Beta virt. eigenvalues --   -0.01954  -0.01637  -0.01551  -0.00716   0.00016
  Beta virt. eigenvalues --    0.00326   0.00471   0.00595   0.00877   0.00904

 Mulliken charges and spin densities:
               1          2
     1  Na  -1.017678   0.188683
     2  Na  -0.252396   0.300027
     3  Na   1.357613   0.166404
     4  Na  -0.271264   0.085179
     5  Na   0.244754   0.105591
     6  Na   0.210707   0.063388
     7  Na  -0.271737   0.090728
 Sum of Mulliken charges =  -0.00000   1.00000

 Dipole moment (field-independent basis, Debye):
    X=             -0.1278    Y=             -0.2045    Z=              0.1464  Tot=              0.2822
 Quadrupole moment (field-independent basis, Debye-Ang):
   XX=            -53.5257   YY=            -71.7866   ZZ=            -69.7557
   XY=              1.0728   XZ=              0.2699   YZ=              1.4464

 Normal termination of Gaussian 16 at Mon Nov 13 12:29:24 2023.
