 Gaussian 16, Revision B.01,
 Gaussian 16:  ES64L-G16RevB.01 20-Dec-2017

 -------------------------
 #P B3LYP/6-311+g(d) force
 -------------------------

 -----
 DPGEN
 -----
 Symbolic Z-matrix:
 Charge =  0 Multiplicity = 2

                         Standard orientation:
 ---------------------------------------------------------------------
 Center     Atomic      Atomic             Coordinates (Angstroms)
 Number     Number       Type             X           Y           Z
 ---------------------------------------------------------------------
      1         11           0       42.888451   74.102154    2.156859
      2         11           0       21.574791  -22.469901   -3.352619
      3         11           0       24.818160  -20.098012   -5.470861
      4         11           0       27.348238  -19.780849   -7.129100
      5         11           0       31.571426  -18.847015   -7.956387
      6         11           0     -102.596569   12.897373  -27.262759
      7         11           0      -45.604497   -5.803752   49.014867
 ---------------------------------------------------------------------

 SCF Done:  E(UB3LYP) =  -1136.04064995     A.U. after   43 cycles

 The electronic state is 2-A.
 Alpha  occ. eigenvalues --  -38.46177 -38.46123 -38.45773 -38.45588 -38.45588
 Alpha  occ. eigenvalues --  -38.44015 -38.43937  -2.21958  -2.21903  -2.21558
 Alpha  occ. eigenvalues --   -2.21213  -2.21212  -2.19817  -2.19735  -1.15576
 Alpha  occ. eigenvalues --   -1.15576  -1.15563  -1.15523  -1.15522  -1.15506
 Alpha  occ. eigenvalues --   -1.15171  -1.15171  -1.15171  -1.14937  -1.14937
 Alpha  occ. eigenvalues --   -1.14937  -1.14937  -1.14937  -1.14937  -1.13564
 Alpha  occ. eigenvalues --   -1.13471  -1.13469  -1.13389  -1.13387  -1.13319
 Alpha  occ. eigenvalues --   -0.14421  -0.13489  -0.12801  -0.11774
 Alpha virt. eigenvalues --   -0.06221  -0.06221  -0.05391  -0.03036  -0.03031
 Alpha virt. eigenvalues --   -0.02617  -0.02326  -0.02250  -0.02100  -0.02100
 Alpha virt. eigenvalues --   -0.02100  -0.01091  -0.00898  -0.00134  -0.00087

  Beta  occ. eigenvalues --  -38.46004 -38.45955 -38.45774 -38.45774 -38.45588
  Beta  occ. eigenvalues --  -38.43984 -38.43915  -2.21637  -2.21589  -2.21558
  Beta  occ. eigenvalues --   -2.21558  -2.21212  -2.19764  -2.19699  -1.15358
  Beta  occ. eigenvalues --   -1.15358  -1.15343  -1.15310  -1.15310  -1.15292
  Beta  occ. eigenvalues --   -1.15171  -1.15171  -1.15171  -1.15171  -1.15171
  Beta  occ. eigenvalues --   -1.15171  -1.14936  -1.14936  -1.14936  -1.13506
  Beta  occ. eigenvalues --   -1.13439  -1.13434  -1.13369  -1.13366  -1.13263
  Beta  occ. eigenvalues --   -0.13008  -0.12801  -0.12801
  Beta virt. eigenvalues --   -0.08449  -0.07015  -0.06221  -0.04202  -0.02533
  Beta virt. eigenvalues --   -0.02498  -0.02100  -0.02100  -0.02100  -0.02100
  Beta virt. eigenvalues --   -0.02100  -0.02100  -0.01293  -0.01118  -0.00915

 Mulliken charges and spin densities:
               1          2
     1  Na  -0.000000   1.000000
     2  Na   0.134793   0.904365
     3  Na  -0.093395   0.127749
     4  Na  -0.197101   0.099649
     5  Na   0.155704   0.868237
     6  Na  -0.000000  -1.000000
     7  Na  -0.000000  -1.000000
 Sum of Mulliken charges =  -0.00000   1.00000

 Dipole moment (field-independent basis, Debye):
    X=              0.1522    Y=             -0.2317    Z=              0.2308  Tot=              0.3607
 Quadrupole moment (field-independent basis, Debye-Ang):
   XX=            -55.4751   YY=            -67.0289   ZZ=            -77.4965
   XY=             -4.4601   XZ=             -1.8621   YZ=             -5.4188

 Normal termination of Gaussian 16 at Thu Nov 23 12:43:57 2023.
