 Gaussian 16, Revision B.01,
 Gaussian 16:  ES64L-G16RevB.01 20-Dec-2017

 -------------------------
 #P B3LYP/6-311+g(d) force
 -------------------------

 -----
 DPGEN
 -----
 Symbolic Z-matrix:
 Charge =  0 Multiplicity = 2

                         Standard orientation:
 ---------------------------------------------------------------------
 Center     Atomic      Atomic             Coordinates (Angstroms)
 Number     Number       Type             X           Y           Z
 ---------------------------------------------------------------------
      1         11           0       -9.835717   -1.254935   -1.451880
      2         11           0       18.800155    0.516556   -1.385561
      3         11           0       19.617360   -1.242783    1.405570
      4         11           0       -8.799173   -3.562047    2.408552
      5         11           0       -7.521490   -5.414420    0.338628
      6         11           0       -6.035575   -8.024800   -1.333758
      7         11           0       -6.225559   18.982429    0.018450
 ---------------------------------------------------------------------

 SCF Done:  E(UB3LYP) =  -1136.07090725     A.U. after   16 cycles

 The electronic state is 2-A.
 Alpha  occ. eigenvalues --  -38.46337 -38.45963 -38.45795 -38.44505 -38.44504
 Alpha  occ. eigenvalues --  -38.43862 -38.43507  -2.22014  -2.21725  -2.21580
 Alpha  occ. eigenvalues --   -2.20250  -2.20242  -2.19613  -2.19324  -1.15697
 Alpha  occ. eigenvalues --   -1.15695  -1.15641  -1.15435  -1.15386  -1.15333
 Alpha  occ. eigenvalues --   -1.15192  -1.15192  -1.15192  -1.13922  -1.13922
 Alpha  occ. eigenvalues --   -1.13915  -1.13912  -1.13912  -1.13834  -1.13281
 Alpha  occ. eigenvalues --   -1.13279  -1.13258  -1.13020  -1.13002  -1.12942
 Alpha  occ. eigenvalues --   -0.14400  -0.12823  -0.12716  -0.11212
 Alpha virt. eigenvalues --   -0.08322  -0.06013  -0.04529  -0.03078  -0.02905
 Alpha virt. eigenvalues --   -0.02230  -0.02229  -0.02122  -0.02121  -0.02121
 Alpha virt. eigenvalues --   -0.01655  -0.01287  -0.01255  -0.01234  -0.00456

  Beta  occ. eigenvalues --  -38.46337 -38.45963 -38.45609 -38.44505 -38.44504
  Beta  occ. eigenvalues --  -38.43862 -38.43507  -2.22014  -2.21725  -2.21234
  Beta  occ. eigenvalues --   -2.20250  -2.20242  -2.19613  -2.19324  -1.15697
  Beta  occ. eigenvalues --   -1.15695  -1.15641  -1.15435  -1.15386  -1.15333
  Beta  occ. eigenvalues --   -1.14958  -1.14958  -1.14958  -1.13922  -1.13922
  Beta  occ. eigenvalues --   -1.13915  -1.13912  -1.13912  -1.13834  -1.13281
  Beta  occ. eigenvalues --   -1.13279  -1.13258  -1.13020  -1.13002  -1.12942
  Beta  occ. eigenvalues --   -0.14400  -0.12716  -0.11212
  Beta virt. eigenvalues --   -0.08322  -0.06244  -0.06013  -0.04529  -0.03078
  Beta virt. eigenvalues --   -0.02905  -0.02230  -0.02229  -0.01655  -0.01287
  Beta virt. eigenvalues --   -0.01255  -0.01234  -0.00456  -0.00407  -0.00113

 Mulliken charges and spin densities:
               1          2
     1  Na   0.052926  -0.000014
     2  Na  -0.000015  -0.000000
     3  Na   0.000015   0.000000
     4  Na   0.964414   0.000009
     5  Na  -1.087954   0.000010
     6  Na   0.070615  -0.000006
     7  Na  -0.000001   1.000001
 Sum of Mulliken charges =  -0.00000   1.00000

 Dipole moment (field-independent basis, Debye):
    X=             -0.8177    Y=              1.3513    Z=              0.2162  Tot=              1.5942
 Quadrupole moment (field-independent basis, Debye-Ang):
   XX=            -63.4545   YY=            -82.3002   ZZ=            -56.7110
   XY=            -11.6966   XZ=             -0.2239   YZ=             -6.3037

 Normal termination of Gaussian 16 at Tue Nov 21 11:48:55 2023.
