 Gaussian 16, Revision B.01,
 Gaussian 16:  ES64L-G16RevB.01 20-Dec-2017

 -------------------------
 #P B3LYP/6-311+g(d) force
 -------------------------

 -----
 DPGEN
 -----
 Symbolic Z-matrix:
 Charge =  0 Multiplicity = 2

                         Standard orientation:
 ---------------------------------------------------------------------
 Center     Atomic      Atomic             Coordinates (Angstroms)
 Number     Number       Type             X           Y           Z
 ---------------------------------------------------------------------
      1         11           0       54.416864    5.914698   -0.507706
      2         11           0      -43.093036    2.638524    2.061363
      3         11           0      -39.969132    1.577770   -1.129196
      4         11           0      -38.671068   -1.368561   -0.931695
      5         11           0      -41.208840   -2.896094   -0.097010
      6         11           0       55.539751   -2.557668   -0.281233
      7         11           0       52.985462   -3.308669    0.885477
 ---------------------------------------------------------------------

 SCF Done:  E(UB3LYP) =  -1136.07114401     A.U. after   17 cycles

 The electronic state is 2-A.
 Alpha  occ. eigenvalues --  -38.45712 -38.45417 -38.45048 -38.44623 -38.44577
 Alpha  occ. eigenvalues --  -38.44169 -38.44168  -2.21498  -2.21193  -2.20791
 Alpha  occ. eigenvalues --   -2.20422  -2.20317  -2.19988  -2.19967  -1.15110
 Alpha  occ. eigenvalues --   -1.15109  -1.15109  -1.14872  -1.14852  -1.14841
 Alpha  occ. eigenvalues --   -1.14486  -1.14461  -1.14428  -1.14078  -1.14074
 Alpha  occ. eigenvalues --   -1.14065  -1.14001  -1.13995  -1.13950  -1.13838
 Alpha  occ. eigenvalues --   -1.13641  -1.13641  -1.13599  -1.13599  -1.13500
 Alpha  occ. eigenvalues --   -0.15048  -0.13228  -0.12736  -0.10813
 Alpha virt. eigenvalues --   -0.07937  -0.05370  -0.05038  -0.03306  -0.02756
 Alpha virt. eigenvalues --   -0.02592  -0.02447  -0.02059  -0.01996  -0.01963
 Alpha virt. eigenvalues --   -0.01681  -0.01219  -0.00862  -0.00739  -0.00480

  Beta  occ. eigenvalues --  -38.45526 -38.45417 -38.45048 -38.44623 -38.44577
  Beta  occ. eigenvalues --  -38.44169 -38.44167  -2.21193  -2.21151  -2.20791
  Beta  occ. eigenvalues --   -2.20422  -2.20317  -2.19987  -2.19967  -1.14875
  Beta  occ. eigenvalues --   -1.14875  -1.14875  -1.14872  -1.14852  -1.14841
  Beta  occ. eigenvalues --   -1.14486  -1.14461  -1.14428  -1.14078  -1.14074
  Beta  occ. eigenvalues --   -1.14065  -1.14001  -1.13995  -1.13950  -1.13838
  Beta  occ. eigenvalues --   -1.13641  -1.13641  -1.13599  -1.13599  -1.13500
  Beta  occ. eigenvalues --   -0.15048  -0.13223  -0.10813
  Beta virt. eigenvalues --   -0.07937  -0.06226  -0.05373  -0.05038  -0.03306
  Beta virt. eigenvalues --   -0.02756  -0.02451  -0.02432  -0.01963  -0.01219
  Beta virt. eigenvalues --   -0.00970  -0.00739  -0.00480  -0.00162  -0.00064

 Mulliken charges and spin densities:
               1          2
     1  Na   0.003345   1.003179
     2  Na  -0.030820   0.000000
     3  Na  -0.149856  -0.000000
     4  Na   0.112601   0.000000
     5  Na   0.068075  -0.000000
     6  Na  -0.039482   0.000536
     7  Na   0.036137  -0.003715
 Sum of Mulliken charges =  -0.00000   1.00000

 Dipole moment (field-independent basis, Debye):
    X=              0.3119    Y=             -1.7460    Z=             -0.3669  Tot=              1.8112
 Quadrupole moment (field-independent basis, Debye-Ang):
   XX=            -90.9499   YY=            -79.6013   ZZ=            -72.4271
   XY=             74.1450   XZ=              7.6270   YZ=             -3.9341

 Normal termination of Gaussian 16 at Thu Nov 23 12:41:24 2023.
