 Gaussian 16, Revision B.01,
 Gaussian 16:  ES64L-G16RevB.01 20-Dec-2017

 -------------------------
 #P B3LYP/6-311+g(d) force
 -------------------------

 -----
 DPGEN
 -----
 Symbolic Z-matrix:
 Charge =  0 Multiplicity = 2

                         Standard orientation:
 ---------------------------------------------------------------------
 Center     Atomic      Atomic             Coordinates (Angstroms)
 Number     Number       Type             X           Y           Z
 ---------------------------------------------------------------------
      1         11           0       50.803869   66.700020   -0.060147
      2         11           0       14.058001  -23.794654   -0.377679
      3         11           0       18.333186  -22.860492   -0.441614
      4         11           0       21.288961  -22.129982    0.129854
      5         11           0       25.224858  -22.521935    0.690790
      6         11           0      -64.813338   13.577844    1.064354
      7         11           0      -64.895538   11.029200   -1.005557
 ---------------------------------------------------------------------

 SCF Done:  E(UB3LYP) =  -1136.06904653     A.U. after   15 cycles

 The electronic state is 2-A.
 Alpha  occ. eigenvalues --  -38.46157 -38.45962 -38.45773 -38.44780 -38.44499
 Alpha  occ. eigenvalues --  -38.44394 -38.44393  -2.21842  -2.21659  -2.21558
 Alpha  occ. eigenvalues --   -2.20540  -2.20270  -2.20151  -2.20145  -1.15519
 Alpha  occ. eigenvalues --   -1.15519  -1.15473  -1.15336  -1.15335  -1.15287
 Alpha  occ. eigenvalues --   -1.15171  -1.15171  -1.15171  -1.14230  -1.14214
 Alpha  occ. eigenvalues --   -1.14206  -1.13945  -1.13944  -1.13884  -1.13841
 Alpha  occ. eigenvalues --   -1.13822  -1.13822  -1.13808  -1.13808  -1.13728
 Alpha  occ. eigenvalues --   -0.14073  -0.12832  -0.12801  -0.11675
 Alpha virt. eigenvalues --   -0.08821  -0.05868  -0.04703  -0.02907  -0.02897
 Alpha virt. eigenvalues --   -0.02271  -0.02271  -0.02100  -0.02100  -0.02100
 Alpha virt. eigenvalues --   -0.01956  -0.01819  -0.01703  -0.01190  -0.00544

  Beta  occ. eigenvalues --  -38.46157 -38.45962 -38.45588 -38.44780 -38.44499
  Beta  occ. eigenvalues --  -38.44394 -38.44393  -2.21842  -2.21659  -2.21212
  Beta  occ. eigenvalues --   -2.20540  -2.20270  -2.20151  -2.20145  -1.15519
  Beta  occ. eigenvalues --   -1.15519  -1.15473  -1.15336  -1.15335  -1.15287
  Beta  occ. eigenvalues --   -1.14936  -1.14936  -1.14936  -1.14230  -1.14214
  Beta  occ. eigenvalues --   -1.14206  -1.13945  -1.13944  -1.13884  -1.13841
  Beta  occ. eigenvalues --   -1.13822  -1.13822  -1.13808  -1.13808  -1.13728
  Beta  occ. eigenvalues --   -0.14073  -0.12832  -0.11675
  Beta virt. eigenvalues --   -0.08821  -0.06221  -0.05868  -0.04703  -0.02907
  Beta virt. eigenvalues --   -0.02897  -0.02271  -0.02271  -0.01956  -0.01819
  Beta virt. eigenvalues --   -0.01703  -0.01190  -0.00544  -0.00495  -0.00087

 Mulliken charges and spin densities:
               1          2
     1  Na  -0.000000   1.000000
     2  Na   0.102627   0.000000
     3  Na  -0.288342   0.000000
     4  Na  -0.055509  -0.000000
     5  Na   0.241224   0.000000
     6  Na   0.000001  -0.000000
     7  Na  -0.000001   0.000000
 Sum of Mulliken charges =  -0.00000   1.00000

 Dipole moment (field-independent basis, Debye):
    X=              0.1633    Y=             -0.2252    Z=              0.1290  Tot=              0.3066
 Quadrupole moment (field-independent basis, Debye-Ang):
   XX=            -42.6866   YY=            -60.4661   ZZ=            -73.7337
   XY=             -5.1411   XZ=              5.3511   YZ=              3.0860

 Normal termination of Gaussian 16 at Thu Nov 23 12:40:30 2023.
