 Gaussian 16, Revision B.01,
 Gaussian 16:  ES64L-G16RevB.01 20-Dec-2017

 -------------------------
 #P B3LYP/6-311+g(d) force
 -------------------------

 -----
 DPGEN
 -----
 Symbolic Z-matrix:
 Charge =  0 Multiplicity = 2

                         Standard orientation:
 ---------------------------------------------------------------------
 Center     Atomic      Atomic             Coordinates (Angstroms)
 Number     Number       Type             X           Y           Z
 ---------------------------------------------------------------------
      1         11           0      -58.734682   -0.585854   67.471559
      2         11           0      -28.954086   -0.548303  -27.368858
      3         11           0      -31.594628   -3.401569  -25.480575
      4         11           0      -33.521298   -5.670847  -25.326620
      5         11           0       38.852617  -67.419826   -0.834923
      6         11           0       93.726189    9.544488   17.897802
      7         11           0       20.225888   68.081911   -6.358385
 ---------------------------------------------------------------------

 SCF Done:  E(UB3LYP) =  -1136.03850947     A.U. after   59 cycles

 The electronic state is 2-A.
 Alpha  occ. eigenvalues --  -38.46081 -38.45774 -38.45773 -38.45588 -38.45588
 Alpha  occ. eigenvalues --  -38.44336 -38.43953  -2.21858  -2.21559  -2.21558
 Alpha  occ. eigenvalues --   -2.21212  -2.21212  -2.20155  -2.19742  -1.15480
 Alpha  occ. eigenvalues --   -1.15480  -1.15459  -1.15171  -1.15171  -1.15171
 Alpha  occ. eigenvalues --   -1.15170  -1.15170  -1.15170  -1.14937  -1.14937
 Alpha  occ. eigenvalues --   -1.14937  -1.14937  -1.14937  -1.14937  -1.13866
 Alpha  occ. eigenvalues --   -1.13788  -1.13788  -1.13408  -1.13407  -1.13384
 Alpha  occ. eigenvalues --   -0.14155  -0.12802  -0.12801  -0.12386
 Alpha virt. eigenvalues --   -0.06221  -0.06221  -0.05333  -0.02880  -0.02875
 Alpha virt. eigenvalues --   -0.02101  -0.02101  -0.02101  -0.02100  -0.02100
 Alpha virt. eigenvalues --   -0.02100  -0.01960  -0.01568  -0.01368  -0.00087

  Beta  occ. eigenvalues --  -38.45920 -38.45774 -38.45774 -38.45588 -38.45588
  Beta  occ. eigenvalues --  -38.44287 -38.43964  -2.21558  -2.21558  -2.21556
  Beta  occ. eigenvalues --   -2.21213  -2.21212  -2.20065  -2.19767  -1.15276
  Beta  occ. eigenvalues --   -1.15276  -1.15256  -1.15171  -1.15171  -1.15171
  Beta  occ. eigenvalues --   -1.15171  -1.15171  -1.15171  -1.14937  -1.14937
  Beta  occ. eigenvalues --   -1.14937  -1.14936  -1.14936  -1.14936  -1.13811
  Beta  occ. eigenvalues --   -1.13727  -1.13727  -1.13429  -1.13428  -1.13361
  Beta  occ. eigenvalues --   -0.13190  -0.12801  -0.12801
  Beta virt. eigenvalues --   -0.07947  -0.06222  -0.06221  -0.04607  -0.02542
  Beta virt. eigenvalues --   -0.02511  -0.02100  -0.02100  -0.02100  -0.02100
  Beta virt. eigenvalues --   -0.02100  -0.02100  -0.01090  -0.00707  -0.00605

 Mulliken charges and spin densities:
               1          2
     1  Na  -0.000000   1.000000
     2  Na   0.089569   0.829053
     3  Na  -0.392292  -0.049875
     4  Na   0.302723   0.220823
     5  Na  -0.000000  -1.000000
     6  Na  -0.000000  -1.000000
     7  Na  -0.000000   1.000000
 Sum of Mulliken charges =  -0.00000   1.00000

 Dipole moment (field-independent basis, Debye):
    X=              0.2194    Y=              0.2115    Z=             -0.3235  Tot=              0.4444
 Quadrupole moment (field-independent basis, Debye-Ang):
   XX=            -86.6765   YY=            -72.4068   ZZ=            -60.8739
   XY=             -0.4050   XZ=              2.5434   YZ=             -6.5279

 Normal termination of Gaussian 16 at Thu Nov 23 12:43:59 2023.
