 Gaussian 16, Revision B.01,
 Gaussian 16:  ES64L-G16RevB.01 20-Dec-2017

 -------------------------
 #P B3LYP/6-311+g(d) force
 -------------------------

 -----
 DPGEN
 -----
 Symbolic Z-matrix:
 Charge =  0 Multiplicity = 2

                         Standard orientation:
 ---------------------------------------------------------------------
 Center     Atomic      Atomic             Coordinates (Angstroms)
 Number     Number       Type             X           Y           Z
 ---------------------------------------------------------------------
      1         11           0       28.746847    6.314310   -0.765995
      2         11           0      -69.820860    4.742112    0.198867
      3         11           0       27.947073    2.416767   -0.757001
      4         11           0       26.131294    0.135000    1.825093
      5         11           0       26.685710   -2.628329    0.767802
      6         11           0       28.878401   -6.200516   -1.006884
      7         11           0      -68.568464   -4.779345   -0.261882
 ---------------------------------------------------------------------

 SCF Done:  E(UB3LYP) =  -1136.06121121     A.U. after   23 cycles

 The electronic state is 2-A.
 Alpha  occ. eigenvalues --  -38.46059 -38.45770 -38.45770 -38.44842 -38.44761
 Alpha  occ. eigenvalues --  -38.44708 -38.44610  -2.21693  -2.21556  -2.21554
 Alpha  occ. eigenvalues --   -2.20571  -2.20505  -2.20440  -2.20404  -1.15412
 Alpha  occ. eigenvalues --   -1.15412  -1.15392  -1.15167  -1.15167  -1.15167
 Alpha  occ. eigenvalues --   -1.15167  -1.15167  -1.15167  -1.14254  -1.14253
 Alpha  occ. eigenvalues --   -1.14249  -1.14166  -1.14162  -1.14158  -1.14136
 Alpha  occ. eigenvalues --   -1.14136  -1.14083  -1.14067  -1.14050  -1.13995
 Alpha  occ. eigenvalues --   -0.14417  -0.12824  -0.12775  -0.11721
 Alpha virt. eigenvalues --   -0.08275  -0.06450  -0.04750  -0.03107  -0.02619
 Alpha virt. eigenvalues --   -0.02363  -0.02181  -0.02181  -0.02073  -0.02000
 Alpha virt. eigenvalues --   -0.02000  -0.01695  -0.01693  -0.01103  -0.00811

  Beta  occ. eigenvalues --  -38.46218 -38.45584 -38.45584 -38.44823 -38.44805
  Beta  occ. eigenvalues --  -38.44684 -38.44642  -2.21991  -2.21210  -2.21208
  Beta  occ. eigenvalues --   -2.20556  -2.20500  -2.20468  -2.20454  -1.15613
  Beta  occ. eigenvalues --   -1.15613  -1.15593  -1.14933  -1.14933  -1.14933
  Beta  occ. eigenvalues --   -1.14933  -1.14933  -1.14933  -1.14264  -1.14215
  Beta  occ. eigenvalues --   -1.14215  -1.14204  -1.14200  -1.14161  -1.14138
  Beta  occ. eigenvalues --   -1.14130  -1.14119  -1.14103  -1.14083  -1.14011
  Beta  occ. eigenvalues --   -0.14651  -0.13121  -0.11855
  Beta virt. eigenvalues --   -0.06800  -0.06336  -0.06252  -0.05156  -0.03226
  Beta virt. eigenvalues --   -0.02907  -0.02429  -0.02184  -0.01934  -0.01401
  Beta virt. eigenvalues --   -0.01241  -0.00411  -0.00404  -0.00304  -0.00304

 Mulliken charges and spin densities:
               1          2
     1  Na   0.082018  -0.302937
     2  Na  -0.000000   1.000000
     3  Na  -0.161594   0.161373
     4  Na   0.356653  -0.151857
     5  Na  -0.311112   0.117760
     6  Na   0.034036  -0.824339
     7  Na   0.000000   1.000000
 Sum of Mulliken charges =  -0.00000   1.00000

 Dipole moment (field-independent basis, Debye):
    X=              0.0751    Y=             -1.1533    Z=              0.0682  Tot=              1.1577
 Quadrupole moment (field-independent basis, Debye-Ang):
   XX=            -71.2548   YY=            -59.9408   ZZ=            -74.1608
   XY=            -34.1686   XZ=             -1.2322   YZ=              4.3973

 Normal termination of Gaussian 16 at Thu Nov 23 12:42:42 2023.
