 Gaussian 16, Revision B.01,

 -------------------------
 #p B3LYP/6-311+g(d) force
 -------------------------

 (Enter /home/sekinelabo/g16/l101.exe)

 Symbolic Z-matrix:
 Charge =  0 Multiplicity = 1

 SCF Done:  E(RB3LYP) =  -649.172819321     A.U. after   14 cycles
 Normal termination of Gaussian 16 at Thu Oct  5 16:00:53 2023.

 -------------------------
 #p B3LYP/6-311+g(d) force
 -------------------------

 (Enter /home/sekinelabo/g16/l101.exe)

 Symbolic Z-matrix:
 Charge =  0 Multiplicity = 1

 SCF Done:  E(RB3LYP) =  -649.148709402     A.U. after   19 cycles
 Normal termination of Gaussian 16 at Thu Oct  5 16:03:54 2023.

 -------------------------
 #p B3LYP/6-311+g(d) force
 -------------------------

 (Enter /home/sekinelabo/g16/l101.exe)

 Symbolic Z-matrix:
 Charge =  0 Multiplicity = 1

 SCF Done:  E(RB3LYP) =  -649.187284737     A.U. after   13 cycles
 Normal termination of Gaussian 16 at Thu Oct  5 16:06:12 2023.

 -------------------------
 #p B3LYP/6-311+g(d) force
 -------------------------

 (Enter /home/sekinelabo/g16/l101.exe)

 Symbolic Z-matrix:
 Charge =  0 Multiplicity = 1

 SCF Done:  E(RB3LYP) =  -649.160800155     A.U. after   17 cycles
 Normal termination of Gaussian 16 at Thu Oct  5 16:08:58 2023.

 -------------------------
 #p B3LYP/6-311+g(d) force
 -------------------------

 (Enter /home/sekinelabo/g16/l101.exe)

 Symbolic Z-matrix:
 Charge =  0 Multiplicity = 1

 SCF Done:  E(RB3LYP) =  -649.173874469     A.U. after   14 cycles

 -------------------------
 #p B3LYP/6-311+g(d) force
 -------------------------

 (Enter /home/sekinelabo/g16/l101.exe)

 Symbolic Z-matrix:
 Charge =  0 Multiplicity = 1

 SCF Done:  E(RB3LYP) =  -649.193454381     A.U. after   14 cycles
 SCF Done:  E(RB3LYP) =  -649.144180408     A.U. after   21 cycles
 SCF Done:  E(RB3LYP) =  -649.183431216     A.U. after   15 cycles
 SCF Done:  E(RB3LYP) =  -649.174445391     A.U. after   14 cycles
 SCF Done:  E(RB3LYP) =  -649.180715119     A.U. after   12 cycles
 SCF Done:  E(RB3LYP) =  -649.188611704     A.U. after   13 cycles
 SCF Done:  E(RB3LYP) =  -649.145391978     A.U. after   19 cycles
 SCF Done:  E(RB3LYP) =  -649.164846688     A.U. after   16 cycles
 SCF Done:  E(RB3LYP) =  -649.196007903     A.U. after   12 cycles
 SCF Done:  E(RB3LYP) =  -649.191810239     A.U. after   13 cycles
 SCF Done:  E(RB3LYP) =  -649.177200566     A.U. after   16 cycles
 SCF Done:  E(RB3LYP) =  -649.179795331     A.U. after   19 cycles
 Normal termination of Gaussian 16 at Thu Oct  5 20:13:55 2023.
 SCF Done:  E(RB3LYP) =  -649.180068096     A.U. after   15 cycles
 Normal termination of Gaussian 16 at Thu Oct  5 20:16:28 2023.
 SCF Done:  E(RB3LYP) =  -649.164020941     A.U. after   14 cycles
 Normal termination of Gaussian 16 at Thu Oct  5 20:18:50 2023.
 Gaussian 16:  ES64L-G16RevB.01 20-Dec-2017

                         Standard orientation:
 ---------------------------------------------------------------------
 Center     Atomic      Atomic             Coordinates (Angstroms)
 Number     Number       Type             X           Y           Z
 ---------------------------------------------------------------------
      1         11           0        2.745752   -2.432551   -0.258098
      2         11           0        3.149363    2.956710   -0.022754
      3         11           0       -0.321114   -1.057368    0.446574
      4         11           0       -5.574001    0.533209   -0.165722
 ---------------------------------------------------------------------

 SCF Done:  E(RB3LYP) =  -649.022081421     A.U. after  129 cycles

 The electronic state is 1-A.
 Alpha  occ. eigenvalues --  -38.49758 -38.45394 -38.45241 -38.43092  -2.25159
 Alpha  occ. eigenvalues --   -2.21161  -2.20819  -2.18545  -1.18830  -1.18829
 Alpha  occ. eigenvalues --   -1.18802  -1.14830  -1.14829  -1.14799  -1.14504
 Alpha  occ. eigenvalues --   -1.14501  -1.14442  -1.12221  -1.12220  -1.12212
 Alpha  occ. eigenvalues --   -0.13837  -0.10402
 Alpha virt. eigenvalues --   -0.08501  -0.05986  -0.03167  -0.03099  -0.02052
 Alpha virt. eigenvalues --   -0.01488  -0.01305  -0.00584  -0.00458   0.00019
 Alpha virt. eigenvalues --    0.00089   0.00561   0.00696   0.00853   0.01199

 Mulliken charges:
               1
     1  Na   0.191780
     2  Na  -0.949517
     3  Na  -0.131535
     4  Na   0.889272
 Sum of Mulliken charges =  -0.00000

 Dipole moment (field-independent basis, Debye):
    X=            -39.4942    Y=            -10.8002    Z=             -0.4683  Tot=             40.9470
 Quadrupole moment (field-independent basis, Debye-Ang):
   XX=             52.6186   YY=            -82.0499   ZZ=            -44.5339
   XY=            -60.0532   XZ=              2.2472   YZ=              0.8741

 Error termination via Lnk1e in /home/sekinelabo/g16/l701.exe at Thu Oct  5 20:33:32 2023.
