 Gaussian 16, Revision B.01,

 -------------------------
 #p B3LYP/6-311+g(d) force
 -------------------------

 (Enter /home/sekinelabo/g16/l101.exe)

 Symbolic Z-matrix:
 Charge =  0 Multiplicity = 1

 SCF Done:  E(RB3LYP) =  -649.197750349     A.U. after   13 cycles
 Normal termination of Gaussian 16 at Mon Sep 11 10:50:25 2023.

 -------------------------
 #p B3LYP/6-311+g(d) force
 -------------------------

 (Enter /home/sekinelabo/g16/l101.exe)

 Symbolic Z-matrix:
 Charge =  0 Multiplicity = 1

 SCF Done:  E(RB3LYP) =  -649.158625938     A.U. after   19 cycles
 Normal termination of Gaussian 16 at Mon Sep 11 10:50:27 2023.

 -------------------------
 #p B3LYP/6-311+g(d) force
 -------------------------

 (Enter /home/sekinelabo/g16/l101.exe)

 Symbolic Z-matrix:
 Charge =  0 Multiplicity = 1

 SCF Done:  E(RB3LYP) =  -649.182069184     A.U. after   18 cycles
 Normal termination of Gaussian 16 at Mon Sep 11 10:50:29 2023.

 -------------------------
 #p B3LYP/6-311+g(d) force
 -------------------------

 (Enter /home/sekinelabo/g16/l101.exe)

 Symbolic Z-matrix:
 Charge =  0 Multiplicity = 1

 SCF Done:  E(RB3LYP) =  -649.163707512     A.U. after   15 cycles
 Normal termination of Gaussian 16 at Mon Sep 11 10:50:31 2023.

 -------------------------
 #p B3LYP/6-311+g(d) force
 -------------------------

 (Enter /home/sekinelabo/g16/l101.exe)

 Symbolic Z-matrix:
 Charge =  0 Multiplicity = 1

 SCF Done:  E(RB3LYP) =  -649.197079005     A.U. after   13 cycles

 -------------------------
 #p B3LYP/6-311+g(d) force
 -------------------------

 (Enter /home/sekinelabo/g16/l101.exe)

 Symbolic Z-matrix:
 Charge =  0 Multiplicity = 1

 SCF Done:  E(RB3LYP) =  -649.181484904     A.U. after   14 cycles
 SCF Done:  E(RB3LYP) =  -649.178154106     A.U. after   18 cycles
 Normal termination of Gaussian 16 at Mon Sep 11 10:50:37 2023.
 SCF Done:  E(RB3LYP) =  -649.200292497     A.U. after   12 cycles
 Normal termination of Gaussian 16 at Mon Sep 11 10:50:38 2023.
 SCF Done:  E(RB3LYP) =  -649.149208562     A.U. after   19 cycles
 Normal termination of Gaussian 16 at Mon Sep 11 10:50:40 2023.
 Gaussian 16:  ES64L-G16RevB.01 20-Dec-2017

                         Standard orientation:
 ---------------------------------------------------------------------
 Center     Atomic      Atomic             Coordinates (Angstroms)
 Number     Number       Type             X           Y           Z
 ---------------------------------------------------------------------
      1         11           0        0.000000    0.000000   -5.979806
      2         11           0        0.000000    0.000000   -3.604158
      3         11           0        0.000000    0.000000    2.032661
      4         11           0        0.000000    0.000000    7.551303
 ---------------------------------------------------------------------

 SCF Done:  E(RB3LYP) =  -649.156636570     A.U. after   15 cycles

 The electronic state is 1-SG.
 Alpha  occ. eigenvalues --  -38.46713 -38.46556 -38.45231 -38.45106  -2.22382
 Alpha  occ. eigenvalues --   -2.22225  -2.21231  -2.20954  -1.16057  -1.16057
 Alpha  occ. eigenvalues --   -1.16024  -1.15902  -1.15902  -1.15865  -1.15790
 Alpha  occ. eigenvalues --   -1.14774  -1.14774  -1.14509  -1.14509  -1.14180
 Alpha  occ. eigenvalues --   -0.14061  -0.11771
 Alpha virt. eigenvalues --   -0.08691  -0.04903  -0.03001  -0.03001  -0.02120
 Alpha virt. eigenvalues --   -0.02120  -0.02099  -0.00766  -0.00766  -0.00327
 Alpha virt. eigenvalues --    0.00069   0.00810   0.00971   0.01043   0.01043

 Mulliken charges:
               1
     1  Na  -0.051124
     2  Na  -0.154602
     3  Na   0.196192
     4  Na   0.009535
 Sum of Mulliken charges =   0.00000

 Dipole moment (field-independent basis, Debye):
    X=              0.0000    Y=              0.0000    Z=              0.2878  Tot=              0.2878
 Quadrupole moment (field-independent basis, Debye-Ang):
   XX=            -46.1008   YY=            -46.1008   ZZ=            -19.4407
   XY=              0.0000   XZ=              0.0000   YZ=              0.0000

 Normal termination of Gaussian 16 at Mon Sep 11 10:50:42 2023.
