 Gaussian 16, Revision B.01,

 -------------------------
 #p B3LYP/6-311+g(d) force
 -------------------------

 (Enter /home/sekinelabo/g16/l101.exe)

 Symbolic Z-matrix:
 Charge =  0 Multiplicity = 1

 SCF Done:  E(RB3LYP) =  -649.182327393     A.U. after   12 cycles
 Normal termination of Gaussian 16 at Mon Sep 11 10:45:33 2023.

 -------------------------
 #p B3LYP/6-311+g(d) force
 -------------------------

 (Enter /home/sekinelabo/g16/l101.exe)

 Symbolic Z-matrix:
 Charge =  0 Multiplicity = 1

 SCF Done:  E(RB3LYP) =  -649.154538021     A.U. after   15 cycles
 Normal termination of Gaussian 16 at Mon Sep 11 10:45:35 2023.

 -------------------------
 #p B3LYP/6-311+g(d) force
 -------------------------

 (Enter /home/sekinelabo/g16/l101.exe)

 Symbolic Z-matrix:
 Charge =  0 Multiplicity = 1

 SCF Done:  E(RB3LYP) =  -649.144808813     A.U. after   17 cycles
 Normal termination of Gaussian 16 at Mon Sep 11 10:45:36 2023.

 -------------------------
 #p B3LYP/6-311+g(d) force
 -------------------------

 (Enter /home/sekinelabo/g16/l101.exe)

 Symbolic Z-matrix:
 Charge =  0 Multiplicity = 1

 SCF Done:  E(RB3LYP) =  -649.182441601     A.U. after   15 cycles
 Normal termination of Gaussian 16 at Mon Sep 11 10:45:38 2023.

 -------------------------
 #p B3LYP/6-311+g(d) force
 -------------------------

 (Enter /home/sekinelabo/g16/l101.exe)

 Symbolic Z-matrix:
 Charge =  0 Multiplicity = 1

 SCF Done:  E(RB3LYP) =  -649.168901020     A.U. after   12 cycles

 -------------------------
 #p B3LYP/6-311+g(d) force
 -------------------------

 (Enter /home/sekinelabo/g16/l101.exe)

 Symbolic Z-matrix:
 Charge =  0 Multiplicity = 1

 SCF Done:  E(RB3LYP) =  -649.171137674     A.U. after   19 cycles
 SCF Done:  E(RB3LYP) =  -649.183640444     A.U. after   13 cycles
 Normal termination of Gaussian 16 at Mon Sep 11 10:45:44 2023.
 SCF Done:  E(RB3LYP) =  -649.185506210     A.U. after   13 cycles
 Normal termination of Gaussian 16 at Mon Sep 11 10:45:46 2023.
 SCF Done:  E(RB3LYP) =  -649.179316712     A.U. after   15 cycles
 Normal termination of Gaussian 16 at Mon Sep 11 10:45:48 2023.
 Gaussian 16:  ES64L-G16RevB.01 20-Dec-2017

                         Standard orientation:
 ---------------------------------------------------------------------
 Center     Atomic      Atomic             Coordinates (Angstroms)
 Number     Number       Type             X           Y           Z
 ---------------------------------------------------------------------
      1         11           0        0.000000    0.000000   -4.768089
      2         11           0        0.000000    0.000000   -2.346411
      3         11           0        0.000000    0.000000    1.692154
      4         11           0        0.000000    0.000000    5.422346
 ---------------------------------------------------------------------

 SCF Done:  E(RB3LYP) =  -649.185920130     A.U. after   13 cycles

 The electronic state is 1-SG.
 Alpha  occ. eigenvalues --  -38.45539 -38.45291 -38.44935 -38.44758  -2.21464
 Alpha  occ. eigenvalues --   -2.21005  -2.20836  -2.20479  -1.15778  -1.15023
 Alpha  occ. eigenvalues --   -1.15023  -1.14680  -1.14680  -1.14624  -1.14403
 Alpha  occ. eigenvalues --   -1.14403  -1.14249  -1.14163  -1.14163  -1.14091
 Alpha  occ. eigenvalues --   -0.14607  -0.12470
 Alpha virt. eigenvalues --   -0.07512  -0.03941  -0.03236  -0.03236  -0.02002
 Alpha virt. eigenvalues --   -0.02002  -0.01077   0.00250   0.00276   0.00276
 Alpha virt. eigenvalues --    0.00323   0.01153   0.01154   0.01154   0.01310

 Mulliken charges:
               1
     1  Na   0.227727
     2  Na  -1.044854
     3  Na   0.034765
     4  Na   0.782362
 Sum of Mulliken charges =   0.00000

 Dipole moment (field-independent basis, Debye):
    X=              0.0000    Y=              0.0000    Z=             -0.0645  Tot=              0.0645
 Quadrupole moment (field-independent basis, Debye-Ang):
   XX=            -44.3365   YY=            -44.3365   ZZ=            -17.5207
   XY=              0.0000   XZ=              0.0000   YZ=              0.0000

 Normal termination of Gaussian 16 at Mon Sep 11 10:45:50 2023.
