 Gaussian 16, Revision B.01,

 -------------------------
 #p B3LYP/6-311+g(d) force
 -------------------------

 ----
 Test
 ----
 Symbolic Z-matrix:
 Charge =  0 Multiplicity = 1

 SCF Done:  E(RB3LYP) =  -649.165159704     A.U. after   11 cycles
 Normal termination of Gaussian 16 at Tue Aug  8 11:07:07 2023.

 -------------------------
 #p B3LYP/6-311+g(d) force
 -------------------------

 ----
 Test
 ----
 Symbolic Z-matrix:
 Charge =  0 Multiplicity = 1

 SCF Done:  E(RB3LYP) =  -649.148661589     A.U. after   19 cycles
 Normal termination of Gaussian 16 at Tue Aug  8 11:07:10 2023.

 -------------------------
 #p B3LYP/6-311+g(d) force
 -------------------------

 ----
 Test
 ----
 Symbolic Z-matrix:
 Charge =  0 Multiplicity = 1

 SCF Done:  E(RB3LYP) =  -649.176323418     A.U. after   16 cycles
 Normal termination of Gaussian 16 at Tue Aug  8 11:07:13 2023.

 -------------------------
 #p B3LYP/6-311+g(d) force
 -------------------------

 ----
 Test
 ----
 Symbolic Z-matrix:
 Charge =  0 Multiplicity = 1

 SCF Done:  E(RB3LYP) =  -649.189405658     A.U. after   11 cycles
 Normal termination of Gaussian 16 at Tue Aug  8 11:07:15 2023.

 -------------------------
 #p B3LYP/6-311+g(d) force
 -------------------------

 ----
 Test
 ----
 Symbolic Z-matrix:
 Charge =  0 Multiplicity = 1

 SCF Done:  E(RB3LYP) =  -649.172467939     A.U. after   19 cycles

 -------------------------
 #p B3LYP/6-311+g(d) force
 -------------------------

 ----
 Test
 ----
 Symbolic Z-matrix:
 Charge =  0 Multiplicity = 1

 SCF Done:  E(RB3LYP) =  -649.167314423     A.U. after   16 cycles
 SCF Done:  E(RB3LYP) =  -649.177569809     A.U. after   16 cycles
 Normal termination of Gaussian 16 at Tue Aug  8 11:07:23 2023.
 SCF Done:  E(RB3LYP) =  -649.166130048     A.U. after   14 cycles
 Normal termination of Gaussian 16 at Tue Aug  8 11:07:26 2023.
 SCF Done:  E(RB3LYP) =  -649.151872918     A.U. after   22 cycles
 Normal termination of Gaussian 16 at Tue Aug  8 11:07:29 2023.
 Gaussian 16:  ES64L-G16RevB.01 20-Dec-2017

                         Standard orientation:
 ---------------------------------------------------------------------
 Center     Atomic      Atomic             Coordinates (Angstroms)
 Number     Number       Type             X           Y           Z
 ---------------------------------------------------------------------
      1         11           0        1.990308    0.336309    0.138023
      2         11           0        4.976630   -0.378980   -0.057694
      3         11           0       -1.827491    0.433577   -0.120905
      4         11           0       -5.139448   -0.390906    0.040576
 ---------------------------------------------------------------------

 SCF Done:  E(RB3LYP) =  -649.202273295     A.U. after   12 cycles

 The electronic state is 1-A.
 Alpha  occ. eigenvalues --  -38.45065 -38.44846 -38.44333 -38.44090  -2.20806
 Alpha  occ. eigenvalues --   -2.20627  -2.20087  -2.19884  -1.14474  -1.14474
 Alpha  occ. eigenvalues --   -1.14438  -1.14305  -1.14280  -1.14280  -1.13765
 Alpha  occ. eigenvalues --   -1.13765  -1.13712  -1.13548  -1.13548  -1.13529
 Alpha  occ. eigenvalues --   -0.14167  -0.12477
 Alpha virt. eigenvalues --   -0.07586  -0.04095  -0.02936  -0.02930  -0.01922
 Alpha virt. eigenvalues --   -0.01864  -0.01279   0.00134   0.00195   0.00307
 Alpha virt. eigenvalues --    0.00321   0.01069   0.01261   0.01295   0.01318

 Mulliken charges:
               1
     1  Na  -0.596252
     2  Na   0.593009
     3  Na  -0.401523
     4  Na   0.404765
 Sum of Mulliken charges =  -0.00000

 Dipole moment (field-independent basis, Debye):
    X=              0.0140    Y=             -0.3134    Z=             -0.0125  Tot=              0.3140
 Quadrupole moment (field-independent basis, Debye-Ang):
   XX=            -16.3841   YY=            -42.9690   ZZ=            -44.0510
   XY=              0.2187   XZ=             -0.9535   YZ=              0.0099

 Normal termination of Gaussian 16 at Tue Aug  8 11:07:31 2023.
