 Gaussian 16, Revision B.01,

 -------------------------
 #p B3LYP/6-311+g(d) force
 -------------------------

 (Enter /home/sekinelabo/g16/l101.exe)

 Symbolic Z-matrix:
 Charge =  0 Multiplicity = 1

 SCF Done:  E(RB3LYP) =  -649.153353156     A.U. after   17 cycles
 Normal termination of Gaussian 16 at Fri Oct  6 22:02:12 2023.

 -------------------------
 #p B3LYP/6-311+g(d) force
 -------------------------

 (Enter /home/sekinelabo/g16/l101.exe)

 Symbolic Z-matrix:
 Charge =  0 Multiplicity = 1

 SCF Done:  E(RB3LYP) =  -649.199411118     A.U. after   12 cycles
 Normal termination of Gaussian 16 at Fri Oct  6 22:04:25 2023.

 -------------------------
 #p B3LYP/6-311+g(d) force
 -------------------------

 (Enter /home/sekinelabo/g16/l101.exe)

 Symbolic Z-matrix:
 Charge =  0 Multiplicity = 1

 SCF Done:  E(RB3LYP) =  -649.160463284     A.U. after   11 cycles
 Normal termination of Gaussian 16 at Fri Oct  6 22:06:31 2023.

 -------------------------
 #p B3LYP/6-311+g(d) force
 -------------------------

 (Enter /home/sekinelabo/g16/l101.exe)

 Symbolic Z-matrix:
 Charge =  0 Multiplicity = 1

 SCF Done:  E(RB3LYP) =  -649.173984485     A.U. after   11 cycles
 Normal termination of Gaussian 16 at Fri Oct  6 22:08:38 2023.

 -------------------------
 #p B3LYP/6-311+g(d) force
 -------------------------

 (Enter /home/sekinelabo/g16/l101.exe)

 Symbolic Z-matrix:
 Charge =  0 Multiplicity = 1

 SCF Done:  E(RB3LYP) =  -649.168110124     A.U. after   18 cycles

 -------------------------
 #p B3LYP/6-311+g(d) force
 -------------------------

 (Enter /home/sekinelabo/g16/l101.exe)

 Symbolic Z-matrix:
 Charge =  0 Multiplicity = 1

 SCF Done:  E(RB3LYP) =  -649.167609753     A.U. after   19 cycles
 SCF Done:  E(RB3LYP) =  -649.184340024     A.U. after   14 cycles
 SCF Done:  E(RB3LYP) =  -649.185730786     A.U. after   16 cycles
 SCF Done:  E(RB3LYP) =  -649.195818483     A.U. after   12 cycles
 SCF Done:  E(RB3LYP) =  -649.173852797     A.U. after   16 cycles
 SCF Done:  E(RB3LYP) =  -649.175502515     A.U. after   15 cycles
 SCF Done:  E(RB3LYP) =  -649.173579482     A.U. after   16 cycles
 SCF Done:  E(RB3LYP) =  -649.155238501     A.U. after   20 cycles
 SCF Done:  E(RB3LYP) =  -649.198522913     A.U. after   13 cycles
 SCF Done:  E(RB3LYP) =  -649.178937899     A.U. after   15 cycles
 SCF Done:  E(RB3LYP) =  -649.169115006     A.U. after   16 cycles
 SCF Done:  E(RB3LYP) =  -649.162638196     A.U. after   17 cycles
 Normal termination of Gaussian 16 at Sat Oct  7 02:09:07 2023.
 SCF Done:  E(RB3LYP) =  -649.174192153     A.U. after   17 cycles
 Normal termination of Gaussian 16 at Sat Oct  7 02:10:47 2023.
 SCF Done:  E(RB3LYP) =  -649.189489998     A.U. after   12 cycles
 Normal termination of Gaussian 16 at Sat Oct  7 02:11:47 2023.
 Gaussian 16:  ES64L-G16RevB.01 20-Dec-2017

                         Standard orientation:
 ---------------------------------------------------------------------
 Center     Atomic      Atomic             Coordinates (Angstroms)
 Number     Number       Type             X           Y           Z
 ---------------------------------------------------------------------
      1         11           0       -4.367807   -0.746475   -0.400363
      2         11           0       -1.456190    0.376078    1.051672
      3         11           0        0.556450    0.989981   -0.682118
      4         11           0        5.267547   -0.619584    0.030809
 ---------------------------------------------------------------------

 SCF Done:  E(RB3LYP) =  -649.176915361     A.U. after   17 cycles

 The electronic state is 1-A.
 Alpha  occ. eigenvalues --  -38.45669 -38.45469 -38.45398 -38.44785  -2.21347
 Alpha  occ. eigenvalues --   -2.21276  -2.21134  -2.20651  -1.15155  -1.15025
 Alpha  occ. eigenvalues --   -1.15024  -1.14987  -1.14913  -1.14873  -1.14805
 Alpha  occ. eigenvalues --   -1.14804  -1.14772  -1.14308  -1.14284  -1.14233
 Alpha  occ. eigenvalues --   -0.14884  -0.11090
 Alpha virt. eigenvalues --   -0.08283  -0.04810  -0.03276  -0.02974  -0.01856
 Alpha virt. eigenvalues --   -0.01420  -0.01007  -0.00653  -0.00222  -0.00069
 Alpha virt. eigenvalues --    0.00305   0.00877   0.01066   0.01206   0.01317

 Mulliken charges:
               1
     1  Na   0.110315
     2  Na  -0.044234
     3  Na  -0.043227
     4  Na  -0.022854
 Sum of Mulliken charges =  -0.00000

 Dipole moment (field-independent basis, Debye):
    X=             -1.2413    Y=             -0.2418    Z=             -0.2241  Tot=              1.2843
 Quadrupole moment (field-independent basis, Debye-Ang):
   XX=            -31.6564   YY=            -42.7219   ZZ=            -40.2068
   XY=              0.2394   XZ=              2.5061   YZ=             -0.1592

 Normal termination of Gaussian 16 at Sat Oct  7 02:12:25 2023.
