 Gaussian 16, Revision B.01,

 -------------------------
 #p B3LYP/6-311+g(d) force
 -------------------------

 (Enter /home/sekinelabo/g16/l101.exe)

 Symbolic Z-matrix:
 Charge =  0 Multiplicity = 1

 SCF Done:  E(RB3LYP) =  -649.174036210     A.U. after   17 cycles
 Normal termination of Gaussian 16 at Fri Oct  6 22:02:17 2023.

 -------------------------
 #p B3LYP/6-311+g(d) force
 -------------------------

 (Enter /home/sekinelabo/g16/l101.exe)

 Symbolic Z-matrix:
 Charge =  0 Multiplicity = 1

 SCF Done:  E(RB3LYP) =  -649.180019938     A.U. after   16 cycles
 Normal termination of Gaussian 16 at Fri Oct  6 22:04:56 2023.

 -------------------------
 #p B3LYP/6-311+g(d) force
 -------------------------

 (Enter /home/sekinelabo/g16/l101.exe)

 Symbolic Z-matrix:
 Charge =  0 Multiplicity = 1

 SCF Done:  E(RB3LYP) =  -649.153002062     A.U. after   20 cycles
 Normal termination of Gaussian 16 at Fri Oct  6 22:08:02 2023.

 -------------------------
 #p B3LYP/6-311+g(d) force
 -------------------------

 (Enter /home/sekinelabo/g16/l101.exe)

 Symbolic Z-matrix:
 Charge =  0 Multiplicity = 1

 SCF Done:  E(RB3LYP) =  -649.160428103     A.U. after   19 cycles
 Normal termination of Gaussian 16 at Fri Oct  6 22:11:00 2023.

 -------------------------
 #p B3LYP/6-311+g(d) force
 -------------------------

 (Enter /home/sekinelabo/g16/l101.exe)

 Symbolic Z-matrix:
 Charge =  0 Multiplicity = 1

 SCF Done:  E(RB3LYP) =  -649.170855463     A.U. after   17 cycles

 -------------------------
 #p B3LYP/6-311+g(d) force
 -------------------------

 (Enter /home/sekinelabo/g16/l101.exe)

 Symbolic Z-matrix:
 Charge =  0 Multiplicity = 1

 SCF Done:  E(RB3LYP) =  -649.195672976     A.U. after   11 cycles
 SCF Done:  E(RB3LYP) =  -649.180298641     A.U. after   13 cycles
 SCF Done:  E(RB3LYP) =  -649.175124851     A.U. after   18 cycles
 SCF Done:  E(RB3LYP) =  -649.167414553     A.U. after   16 cycles
 SCF Done:  E(RB3LYP) =  -649.191637467     A.U. after   12 cycles
 SCF Done:  E(RB3LYP) =  -649.185535724     A.U. after   13 cycles
 SCF Done:  E(RB3LYP) =  -649.189215845     A.U. after   11 cycles
 SCF Done:  E(RB3LYP) =  -649.175775548     A.U. after   17 cycles
 SCF Done:  E(RB3LYP) =  -649.193247817     A.U. after   12 cycles
 SCF Done:  E(RB3LYP) =  -649.176726522     A.U. after   15 cycles
 SCF Done:  E(RB3LYP) =  -649.180042892     A.U. after   16 cycles
 SCF Done:  E(RB3LYP) =  -649.182686339     A.U. after   11 cycles
 Normal termination of Gaussian 16 at Sat Oct  7 02:10:15 2023.
 SCF Done:  E(RB3LYP) =  -649.155437102     A.U. after   17 cycles
 Normal termination of Gaussian 16 at Sat Oct  7 02:11:30 2023.
 SCF Done:  E(RB3LYP) =  -649.168718449     A.U. after   17 cycles
 Normal termination of Gaussian 16 at Sat Oct  7 02:12:17 2023.
 Gaussian 16:  ES64L-G16RevB.01 20-Dec-2017

                         Standard orientation:
 ---------------------------------------------------------------------
 Center     Atomic      Atomic             Coordinates (Angstroms)
 Number     Number       Type             X           Y           Z
 ---------------------------------------------------------------------
      1         11           0        3.323845   -2.063112   -0.309202
      2         11           0        3.786280    2.238672   -0.053123
      3         11           0       -1.148039   -0.553687    0.704002
      4         11           0       -5.962086    0.378128   -0.341676
 ---------------------------------------------------------------------

 SCF Done:  E(RB3LYP) =  -649.164971138     A.U. after   14 cycles

 The electronic state is 1-A.
 Alpha  occ. eigenvalues --  -38.46610 -38.46576 -38.45589 -38.45037  -2.22287
 Alpha  occ. eigenvalues --   -2.22255  -2.21257  -2.20716  -1.15969  -1.15966
 Alpha  occ. eigenvalues --   -1.15940  -1.15922  -1.15909  -1.15881  -1.14949
 Alpha  occ. eigenvalues --   -1.14945  -1.14872  -1.14395  -1.14395  -1.14352
 Alpha  occ. eigenvalues --   -0.13305  -0.10902
 Alpha virt. eigenvalues --   -0.08099  -0.07000  -0.02862  -0.02678  -0.02338
 Alpha virt. eigenvalues --   -0.01786  -0.01367  -0.00830  -0.00490  -0.00377
 Alpha virt. eigenvalues --    0.00109   0.00324   0.00512   0.00599   0.01139

 Mulliken charges:
               1
     1  Na   0.077298
     2  Na   0.056893
     3  Na  -0.059973
     4  Na  -0.074218
 Sum of Mulliken charges =  -0.00000

 Dipole moment (field-independent basis, Debye):
    X=              2.9192    Y=              0.1786    Z=             -0.1508  Tot=              2.9285
 Quadrupole moment (field-independent basis, Debye-Ang):
   XX=            -38.4541   YY=            -31.2559   ZZ=            -46.1234
   XY=             -1.4184   XZ=              1.2153   YZ=              0.8688

 Normal termination of Gaussian 16 at Sat Oct  7 02:12:36 2023.
