 Gaussian 16, Revision B.01,
 Gaussian 16:  ES64L-G16RevB.01 20-Dec-2017

 -------------------------
 #P B3LYP/6-311+g(d) force
 -------------------------

 -----
 DPGEN
 -----
 Symbolic Z-matrix:
 Charge =  0 Multiplicity = 2

                         Standard orientation:
 ---------------------------------------------------------------------
 Center     Atomic      Atomic             Coordinates (Angstroms)
 Number     Number       Type             X           Y           Z
 ---------------------------------------------------------------------
      1         11           0      -28.687943   -6.351809   -0.803462
      2         11           0       69.841267   -4.780220    0.219200
      3         11           0      -28.011655   -2.400315   -0.781600
      4         11           0      -26.199345   -0.177266    1.842142
      5         11           0      -26.649026    2.555402    0.798591
      6         11           0      -28.895118    6.331940   -0.992341
      7         11           0       68.601820    4.822268   -0.282529
 ---------------------------------------------------------------------

 SCF Done:  E(UB3LYP) =  -1136.05972623     A.U. after   24 cycles

 The electronic state is 2-A.
 Alpha  occ. eigenvalues --  -38.46141 -38.45770 -38.45770 -38.44834 -38.44751
 Alpha  occ. eigenvalues --  -38.44722 -38.44606  -2.21772  -2.21556  -2.21554
 Alpha  occ. eigenvalues --   -2.20562  -2.20555  -2.20410  -2.20400  -1.15492
 Alpha  occ. eigenvalues --   -1.15492  -1.15476  -1.15168  -1.15167  -1.15167
 Alpha  occ. eigenvalues --   -1.15167  -1.15167  -1.15167  -1.14315  -1.14245
 Alpha  occ. eigenvalues --   -1.14241  -1.14210  -1.14205  -1.14150  -1.14096
 Alpha  occ. eigenvalues --   -1.14096  -1.14069  -1.14051  -1.14043  -1.14008
 Alpha  occ. eigenvalues --   -0.14473  -0.12822  -0.12777  -0.11667
 Alpha virt. eigenvalues --   -0.08159  -0.06488  -0.04805  -0.03125  -0.02623
 Alpha virt. eigenvalues --   -0.02356  -0.02178  -0.02178  -0.02054  -0.02004
 Alpha virt. eigenvalues --   -0.02004  -0.01708  -0.01657  -0.01081  -0.00820

  Beta  occ. eigenvalues --  -38.46308 -38.45584 -38.45584 -38.44797 -38.44780
  Beta  occ. eigenvalues --  -38.44728 -38.44632  -2.22082  -2.21210  -2.21208
  Beta  occ. eigenvalues --   -2.20511  -2.20509  -2.20491  -2.20459  -1.15702
  Beta  occ. eigenvalues --   -1.15701  -1.15686  -1.14933  -1.14933  -1.14933
  Beta  occ. eigenvalues --   -1.14933  -1.14933  -1.14933  -1.14320  -1.14196
  Beta  occ. eigenvalues --   -1.14192  -1.14178  -1.14172  -1.14171  -1.14171
  Beta  occ. eigenvalues --   -1.14121  -1.14106  -1.14102  -1.14079  -1.14020
  Beta  occ. eigenvalues --   -0.14635  -0.13168  -0.11805
  Beta virt. eigenvalues --   -0.06823  -0.06334  -0.06254  -0.05169  -0.03235
  Beta virt. eigenvalues --   -0.02906  -0.02442  -0.02204  -0.01987  -0.01425
  Beta virt. eigenvalues --   -0.01227  -0.00425  -0.00410  -0.00301  -0.00300

 Mulliken charges and spin densities:
               1          2
     1  Na   0.083545  -0.287148
     2  Na  -0.000000   1.000000
     3  Na  -0.169435   0.162995
     4  Na   0.354797  -0.120963
     5  Na  -0.287581   0.120350
     6  Na   0.018674  -0.875235
     7  Na   0.000000   1.000000
 Sum of Mulliken charges =  -0.00000   1.00000

 Dipole moment (field-independent basis, Debye):
    X=             -0.0350    Y=              1.3416    Z=              0.1019  Tot=              1.3459
 Quadrupole moment (field-independent basis, Debye-Ang):
   XX=            -73.9349   YY=            -60.2117   ZZ=            -74.3582
   XY=            -39.5002   XZ=              0.0502   YZ=             -4.4416

 Normal termination of Gaussian 16 at Thu Nov 23 12:42:53 2023.
