 Gaussian 16, Revision B.01,
 Gaussian 16:  ES64L-G16RevB.01 20-Dec-2017

 -------------------------
 #P B3LYP/6-311+g(d) force
 -------------------------

 -----
 DPGEN
 -----
 Symbolic Z-matrix:
 Charge =  0 Multiplicity = 2

                         Standard orientation:
 ---------------------------------------------------------------------
 Center     Atomic      Atomic             Coordinates (Angstroms)
 Number     Number       Type             X           Y           Z
 ---------------------------------------------------------------------
      1         11           0       29.293014    5.964949   -0.535307
      2         11           0      -69.903492    4.386879    0.120616
      3         11           0       27.610093    2.844753   -0.724751
      4         11           0       25.647852   -0.211873    1.498314
      5         11           0       26.265529   -2.979788    1.252675
      6         11           0       29.131850   -5.594968   -1.408419
      7         11           0      -68.044848   -4.409952   -0.203128
 ---------------------------------------------------------------------

 SCF Done:  E(UB3LYP) =  -1136.06228061     A.U. after   36 cycles

 The electronic state is 2-A.
 Alpha  occ. eigenvalues --  -38.46096 -38.45767 -38.45767 -38.44637 -38.44630
 Alpha  occ. eigenvalues --  -38.44448 -38.44365  -2.21725  -2.21554  -2.21552
 Alpha  occ. eigenvalues --   -2.20458  -2.20354  -2.20183  -2.20177  -1.15446
 Alpha  occ. eigenvalues --   -1.15446  -1.15432  -1.15165  -1.15165  -1.15165
 Alpha  occ. eigenvalues --   -1.15165  -1.15165  -1.15165  -1.14263  -1.14103
 Alpha  occ. eigenvalues --   -1.14090  -1.14032  -1.14031  -1.13987  -1.13864
 Alpha  occ. eigenvalues --   -1.13861  -1.13824  -1.13817  -1.13789  -1.13784
 Alpha  occ. eigenvalues --   -0.14100  -0.12841  -0.12756  -0.12288
 Alpha virt. eigenvalues --   -0.07908  -0.06520  -0.04259  -0.02997  -0.02732
 Alpha virt. eigenvalues --   -0.02423  -0.02209  -0.02209  -0.02117  -0.01963
 Alpha virt. eigenvalues --   -0.01963  -0.01799  -0.01581  -0.01060  -0.00635

  Beta  occ. eigenvalues --  -38.46267 -38.45582 -38.45582 -38.44645 -38.44627
  Beta  occ. eigenvalues --  -38.44439 -38.44392  -2.22045  -2.21208  -2.21206
  Beta  occ. eigenvalues --   -2.20435  -2.20382  -2.20227  -2.20166  -1.15663
  Beta  occ. eigenvalues --   -1.15663  -1.15649  -1.14931  -1.14931  -1.14931
  Beta  occ. eigenvalues --   -1.14931  -1.14930  -1.14930  -1.14272  -1.14085
  Beta  occ. eigenvalues --   -1.14076  -1.14050  -1.14050  -1.14004  -1.13858
  Beta  occ. eigenvalues --   -1.13852  -1.13851  -1.13848  -1.13808  -1.13782
  Beta  occ. eigenvalues --   -0.14511  -0.13099  -0.12109
  Beta virt. eigenvalues --   -0.06871  -0.06354  -0.06224  -0.04736  -0.03168
  Beta virt. eigenvalues --   -0.02987  -0.02494  -0.02155  -0.01822  -0.01411
  Beta virt. eigenvalues --   -0.01158  -0.00513  -0.00415  -0.00334  -0.00333

 Mulliken charges and spin densities:
               1          2
     1  Na   0.072894  -0.073638
     2  Na  -0.000000   1.000000
     3  Na  -0.194440   0.037506
     4  Na   0.102993  -0.117564
     5  Na  -0.017715   0.065142
     6  Na   0.036268  -0.911446
     7  Na   0.000000   1.000000
 Sum of Mulliken charges =  -0.00000   1.00000

 Dipole moment (field-independent basis, Debye):
    X=              0.4458    Y=             -0.7755    Z=             -0.2053  Tot=              0.9177
 Quadrupole moment (field-independent basis, Debye-Ang):
   XX=            -48.8360   YY=            -59.0368   ZZ=            -75.8207
   XY=            -19.6884   XZ=             -7.7411   YZ=              2.6625

 Normal termination of Gaussian 16 at Thu Nov 23 12:43:49 2023.
