 Gaussian 16, Revision B.01,
 Gaussian 16:  ES64L-G16RevB.01 20-Dec-2017

 -------------------------
 #P B3LYP/6-311+g(d) force
 -------------------------

 -----
 DPGEN
 -----
 Symbolic Z-matrix:
 Charge =  0 Multiplicity = 2

                         Standard orientation:
 ---------------------------------------------------------------------
 Center     Atomic      Atomic             Coordinates (Angstroms)
 Number     Number       Type             X           Y           Z
 ---------------------------------------------------------------------
      1         11           0      -14.368375   20.092928    0.372725
      2         11           0       20.492407    1.754679   -1.013461
      3         11           0       19.896455    4.242099    1.077764
      4         11           0       -6.818632   -3.509242   -2.318942
      5         11           0       -5.918681   -6.701628   -2.012656
      6         11           0       -7.649442   -7.586545    0.547346
      7         11           0       -5.633732   -8.292291    3.347224
 ---------------------------------------------------------------------

 SCF Done:  E(UB3LYP) =  -1136.08745954     A.U. after   12 cycles

 The electronic state is 2-A.
 Alpha  occ. eigenvalues --  -38.45785 -38.44605 -38.44540 -38.44417 -38.44416
 Alpha  occ. eigenvalues --  -38.44217 -38.44187  -2.21569  -2.20359  -2.20349
 Alpha  occ. eigenvalues --   -2.20171  -2.20165  -2.20009  -2.19925  -1.15182
 Alpha  occ. eigenvalues --   -1.15182  -1.15182  -1.14053  -1.14039  -1.14027
 Alpha  occ. eigenvalues --   -1.14022  -1.14008  -1.13933  -1.13857  -1.13843
 Alpha  occ. eigenvalues --   -1.13843  -1.13830  -1.13830  -1.13750  -1.13700
 Alpha  occ. eigenvalues --   -1.13678  -1.13625  -1.13598  -1.13596  -1.13543
 Alpha  occ. eigenvalues --   -0.14682  -0.12817  -0.12812  -0.11488
 Alpha virt. eigenvalues --   -0.06873  -0.05898  -0.04902  -0.02979  -0.02443
 Alpha virt. eigenvalues --   -0.02268  -0.02268  -0.02112  -0.02111  -0.02111
 Alpha virt. eigenvalues --   -0.01903  -0.01205  -0.00921  -0.00803  -0.00148

  Beta  occ. eigenvalues --  -38.45599 -38.44605 -38.44540 -38.44417 -38.44416
  Beta  occ. eigenvalues --  -38.44217 -38.44187  -2.21224  -2.20359  -2.20349
  Beta  occ. eigenvalues --   -2.20171  -2.20165  -2.20009  -2.19925  -1.14948
  Beta  occ. eigenvalues --   -1.14948  -1.14948  -1.14053  -1.14039  -1.14027
  Beta  occ. eigenvalues --   -1.14022  -1.14008  -1.13933  -1.13857  -1.13843
  Beta  occ. eigenvalues --   -1.13843  -1.13830  -1.13830  -1.13750  -1.13700
  Beta  occ. eigenvalues --   -1.13678  -1.13625  -1.13598  -1.13596  -1.13543
  Beta  occ. eigenvalues --   -0.14682  -0.12817  -0.11488
  Beta virt. eigenvalues --   -0.06873  -0.06232  -0.05898  -0.04902  -0.02979
  Beta virt. eigenvalues --   -0.02443  -0.02268  -0.02268  -0.01903  -0.01205
  Beta virt. eigenvalues --   -0.00921  -0.00803  -0.00148  -0.00097  -0.00097

 Mulliken charges and spin densities:
               1          2
     1  Na  -0.000000   1.000000
     2  Na   0.000024   0.000000
     3  Na  -0.000024  -0.000000
     4  Na   0.174278  -0.000008
     5  Na  -0.095970   0.000008
     6  Na  -0.224165  -0.000001
     7  Na   0.145857   0.000001
 Sum of Mulliken charges =  -0.00000   1.00000

 Dipole moment (field-independent basis, Debye):
    X=              0.1440    Y=              0.6314    Z=             -0.3235  Tot=              0.7239
 Quadrupole moment (field-independent basis, Debye-Ang):
   XX=            -73.6838   YY=            -71.6862   ZZ=            -68.3753
   XY=             -9.8321   XZ=              3.1041   YZ=              7.8989

 Normal termination of Gaussian 16 at Tue Nov 21 11:47:53 2023.
