 Gaussian 16, Revision B.01,

 -------------------------
 #p B3LYP/6-311+g(d) force
 -------------------------

 (Enter /home/sekinelabo/g16/l101.exe)

 Symbolic Z-matrix:
 Charge =  0 Multiplicity = 1

 SCF Done:  E(RB3LYP) =  -649.167224404     A.U. after   15 cycles
 Normal termination of Gaussian 16 at Fri Oct  6 22:02:00 2023.

 -------------------------
 #p B3LYP/6-311+g(d) force
 -------------------------

 (Enter /home/sekinelabo/g16/l101.exe)

 Symbolic Z-matrix:
 Charge =  0 Multiplicity = 1

 SCF Done:  E(RB3LYP) =  -649.174058979     A.U. after   16 cycles
 Normal termination of Gaussian 16 at Fri Oct  6 22:04:40 2023.

 -------------------------
 #p B3LYP/6-311+g(d) force
 -------------------------

 (Enter /home/sekinelabo/g16/l101.exe)

 Symbolic Z-matrix:
 Charge =  0 Multiplicity = 1

 SCF Done:  E(RB3LYP) =  -649.187569586     A.U. after   12 cycles
 Normal termination of Gaussian 16 at Fri Oct  6 22:06:52 2023.

 -------------------------
 #p B3LYP/6-311+g(d) force
 -------------------------

 (Enter /home/sekinelabo/g16/l101.exe)

 Symbolic Z-matrix:
 Charge =  0 Multiplicity = 1

 SCF Done:  E(RB3LYP) =  -649.182344696     A.U. after   12 cycles
 Normal termination of Gaussian 16 at Fri Oct  6 22:09:06 2023.

 -------------------------
 #p B3LYP/6-311+g(d) force
 -------------------------

 (Enter /home/sekinelabo/g16/l101.exe)

 Symbolic Z-matrix:
 Charge =  0 Multiplicity = 1

 SCF Done:  E(RB3LYP) =  -649.190473575     A.U. after   11 cycles

 -------------------------
 #p B3LYP/6-311+g(d) force
 -------------------------

 (Enter /home/sekinelabo/g16/l101.exe)

 Symbolic Z-matrix:
 Charge =  0 Multiplicity = 1

 SCF Done:  E(RB3LYP) =  -649.141108178     A.U. after   14 cycles
 SCF Done:  E(RB3LYP) =  -649.149338927     A.U. after   14 cycles
 SCF Done:  E(RB3LYP) =  -649.171220392     A.U. after   14 cycles
 SCF Done:  E(RB3LYP) =  -649.191891193     A.U. after   12 cycles
 SCF Done:  E(RB3LYP) =  -649.189007736     A.U. after   13 cycles
 SCF Done:  E(RB3LYP) =  -649.178616360     A.U. after   11 cycles
 SCF Done:  E(RB3LYP) =  -649.149050785     A.U. after   17 cycles
 SCF Done:  E(RB3LYP) =  -649.166907904     A.U. after   16 cycles
 SCF Done:  E(RB3LYP) =  -649.189253942     A.U. after   12 cycles
 SCF Done:  E(RB3LYP) =  -649.144958056     A.U. after   16 cycles
 SCF Done:  E(RB3LYP) =  -649.195237667     A.U. after   13 cycles
 SCF Done:  E(RB3LYP) =  -649.201267066     A.U. after   11 cycles
 Normal termination of Gaussian 16 at Sat Oct  7 02:04:06 2023.
 SCF Done:  E(RB3LYP) =  -649.197662352     A.U. after   12 cycles
 Normal termination of Gaussian 16 at Sat Oct  7 02:06:16 2023.
 SCF Done:  E(RB3LYP) =  -649.183376849     A.U. after   13 cycles
 Normal termination of Gaussian 16 at Sat Oct  7 02:08:15 2023.
 Gaussian 16:  ES64L-G16RevB.01 20-Dec-2017

                         Standard orientation:
 ---------------------------------------------------------------------
 Center     Atomic      Atomic             Coordinates (Angstroms)
 Number     Number       Type             X           Y           Z
 ---------------------------------------------------------------------
      1         11           0        0.469610   -0.897462    0.572259
      2         11           0        3.345194   -0.141786   -0.480140
      3         11           0       -0.066649    1.301375    0.269495
      4         11           0       -3.748155   -0.262127   -0.361614
 ---------------------------------------------------------------------

 SCF Done:  E(RB3LYP) =  -649.180516872     A.U. after   12 cycles

 The electronic state is 1-A.
 Alpha  occ. eigenvalues --  -38.46572 -38.46085 -38.43726 -38.43671  -2.22601
 Alpha  occ. eigenvalues --   -2.22041  -2.19542  -2.19395  -1.17385  -1.16157
 Alpha  occ. eigenvalues --   -1.15999  -1.15623  -1.15485  -1.15245  -1.13221
 Alpha  occ. eigenvalues --   -1.13204  -1.13175  -1.13078  -1.13077  -1.13008
 Alpha  occ. eigenvalues --   -0.15964  -0.11129
 Alpha virt. eigenvalues --   -0.06126  -0.05168  -0.03644  -0.02231  -0.01537
 Alpha virt. eigenvalues --   -0.00866  -0.00621   0.00195   0.00259   0.00647
 Alpha virt. eigenvalues --    0.00771   0.00797   0.01082   0.01476   0.01533

 Mulliken charges:
               1
     1  Na  -0.158925
     2  Na   0.169552
     3  Na  -0.030478
     4  Na   0.019852
 Sum of Mulliken charges =  -0.00000

 Dipole moment (field-independent basis, Debye):
    X=              1.0047    Y=              0.1270    Z=             -0.1288  Tot=              1.0209
 Quadrupole moment (field-independent basis, Debye-Ang):
   XX=            -37.8588   YY=            -36.1198   ZZ=            -41.9884
   XY=              1.4843   XZ=             -0.3221   YZ=             -0.5618

 Normal termination of Gaussian 16 at Sat Oct  7 02:09:51 2023.
