 Gaussian 16, Revision B.01,

 -------------------------
 #p B3LYP/6-311+g(d) force
 -------------------------

 (Enter /home/sekinelabo/g16/l101.exe)

 Symbolic Z-matrix:
 Charge =  0 Multiplicity = 1

 SCF Done:  E(RB3LYP) =  -649.177055155     A.U. after   17 cycles
 Normal termination of Gaussian 16 at Fri Oct  6 22:02:18 2023.

 -------------------------
 #p B3LYP/6-311+g(d) force
 -------------------------

 (Enter /home/sekinelabo/g16/l101.exe)

 Symbolic Z-matrix:
 Charge =  0 Multiplicity = 1

 SCF Done:  E(RB3LYP) =  -649.179056830     A.U. after   18 cycles
 Normal termination of Gaussian 16 at Fri Oct  6 22:05:12 2023.

 -------------------------
 #p B3LYP/6-311+g(d) force
 -------------------------

 (Enter /home/sekinelabo/g16/l101.exe)

 Symbolic Z-matrix:
 Charge =  0 Multiplicity = 1

 SCF Done:  E(RB3LYP) =  -649.154052042     A.U. after   19 cycles
 Normal termination of Gaussian 16 at Fri Oct  6 22:08:09 2023.

 -------------------------
 #p B3LYP/6-311+g(d) force
 -------------------------

 (Enter /home/sekinelabo/g16/l101.exe)

 Symbolic Z-matrix:
 Charge =  0 Multiplicity = 1

 SCF Done:  E(RB3LYP) =  -649.159844368     A.U. after   19 cycles
 Normal termination of Gaussian 16 at Fri Oct  6 22:11:12 2023.

 -------------------------
 #p B3LYP/6-311+g(d) force
 -------------------------

 (Enter /home/sekinelabo/g16/l101.exe)

 Symbolic Z-matrix:
 Charge =  0 Multiplicity = 1

 SCF Done:  E(RB3LYP) =  -649.166567764     A.U. after   16 cycles

 -------------------------
 #p B3LYP/6-311+g(d) force
 -------------------------

 (Enter /home/sekinelabo/g16/l101.exe)

 Symbolic Z-matrix:
 Charge =  0 Multiplicity = 1

 SCF Done:  E(RB3LYP) =  -649.166669084     A.U. after   19 cycles
 SCF Done:  E(RB3LYP) =  -649.174097641     A.U. after   17 cycles
 SCF Done:  E(RB3LYP) =  -649.168299481     A.U. after   17 cycles
 SCF Done:  E(RB3LYP) =  -649.163723168     A.U. after   12 cycles
 SCF Done:  E(RB3LYP) =  -649.184492445     A.U. after   13 cycles
 SCF Done:  E(RB3LYP) =  -649.159650292     A.U. after   15 cycles
 SCF Done:  E(RB3LYP) =  -649.186858163     A.U. after   15 cycles
 SCF Done:  E(RB3LYP) =  -649.157925445     A.U. after   15 cycles
 SCF Done:  E(RB3LYP) =  -649.194579729     A.U. after   12 cycles
 SCF Done:  E(RB3LYP) =  -649.151079394     A.U. after   19 cycles
 SCF Done:  E(RB3LYP) =  -649.185175551     A.U. after   15 cycles
 SCF Done:  E(RB3LYP) =  -649.158047039     A.U. after   13 cycles
 Normal termination of Gaussian 16 at Sat Oct  7 02:01:37 2023.
 SCF Done:  E(RB3LYP) =  -649.184977838     A.U. after   11 cycles
 Normal termination of Gaussian 16 at Sat Oct  7 02:03:42 2023.
 SCF Done:  E(RB3LYP) =  -649.172936016     A.U. after   19 cycles
 Normal termination of Gaussian 16 at Sat Oct  7 02:06:39 2023.
 Gaussian 16:  ES64L-G16RevB.01 20-Dec-2017

                         Standard orientation:
 ---------------------------------------------------------------------
 Center     Atomic      Atomic             Coordinates (Angstroms)
 Number     Number       Type             X           Y           Z
 ---------------------------------------------------------------------
      1         11           0       -0.675224   -2.630145   -1.054417
      2         11           0       -3.216812    0.002565    1.228566
      3         11           0       -0.252468    2.878732   -0.901043
      4         11           0        4.144503   -0.251152    0.726894
 ---------------------------------------------------------------------

 SCF Done:  E(RB3LYP) =  -649.154387454     A.U. after   18 cycles

 The electronic state is 1-A.
 Alpha  occ. eigenvalues --  -38.46786 -38.46289 -38.45801 -38.44965  -2.22462
 Alpha  occ. eigenvalues --   -2.21960  -2.21489  -2.20654  -1.16146  -1.16132
 Alpha  occ. eigenvalues --   -1.16081  -1.15644  -1.15617  -1.15611  -1.15174
 Alpha  occ. eigenvalues --   -1.15159  -1.15116  -1.14336  -1.14328  -1.14299
 Alpha  occ. eigenvalues --   -0.13310  -0.10422
 Alpha virt. eigenvalues --   -0.08576  -0.07112  -0.02798  -0.02650  -0.02335
 Alpha virt. eigenvalues --   -0.01917  -0.01514  -0.00703  -0.00442  -0.00284
 Alpha virt. eigenvalues --    0.00267   0.00283   0.00359   0.00569   0.01253

 Mulliken charges:
               1
     1  Na   0.073410
     2  Na   0.038195
     3  Na  -0.040646
     4  Na  -0.070959
 Sum of Mulliken charges =  -0.00000

 Dipole moment (field-independent basis, Debye):
    X=             -1.6853    Y=             -0.7010    Z=             -0.3538  Tot=              1.8592
 Quadrupole moment (field-independent basis, Debye-Ang):
   XX=            -46.8532   YY=            -37.0421   ZZ=            -41.3555
   XY=            -10.6466   XZ=             -3.3437   YZ=              2.6437

 Normal termination of Gaussian 16 at Sat Oct  7 02:08:59 2023.
