 Gaussian 16, Revision B.01,

 -------------------------
 #p B3LYP/6-311+g(d) force
 -------------------------

 (Enter /home/sekinelabo/g16/l101.exe)

 Symbolic Z-matrix:
 Charge =  0 Multiplicity = 1

 SCF Done:  E(RB3LYP) =  -649.168838624     A.U. after   12 cycles
 Normal termination of Gaussian 16 at Fri Oct  6 22:01:43 2023.

 -------------------------
 #p B3LYP/6-311+g(d) force
 -------------------------

 (Enter /home/sekinelabo/g16/l101.exe)

 Symbolic Z-matrix:
 Charge =  0 Multiplicity = 1

 SCF Done:  E(RB3LYP) =  -649.147523012     A.U. after   14 cycles
 Normal termination of Gaussian 16 at Fri Oct  6 22:04:04 2023.

 -------------------------
 #p B3LYP/6-311+g(d) force
 -------------------------

 (Enter /home/sekinelabo/g16/l101.exe)

 Symbolic Z-matrix:
 Charge =  0 Multiplicity = 1

 SCF Done:  E(RB3LYP) =  -649.181826799     A.U. after   15 cycles
 Normal termination of Gaussian 16 at Fri Oct  6 22:06:37 2023.

 -------------------------
 #p B3LYP/6-311+g(d) force
 -------------------------

 (Enter /home/sekinelabo/g16/l101.exe)

 Symbolic Z-matrix:
 Charge =  0 Multiplicity = 1

 SCF Done:  E(RB3LYP) =  -649.193301045     A.U. after   13 cycles
 Normal termination of Gaussian 16 at Fri Oct  6 22:08:55 2023.

 -------------------------
 #p B3LYP/6-311+g(d) force
 -------------------------

 (Enter /home/sekinelabo/g16/l101.exe)

 Symbolic Z-matrix:
 Charge =  0 Multiplicity = 1

 SCF Done:  E(RB3LYP) =  -649.181947894     A.U. after   14 cycles

 -------------------------
 #p B3LYP/6-311+g(d) force
 -------------------------

 (Enter /home/sekinelabo/g16/l101.exe)

 Symbolic Z-matrix:
 Charge =  0 Multiplicity = 1

 SCF Done:  E(RB3LYP) =  -649.199631561     A.U. after   11 cycles
 SCF Done:  E(RB3LYP) =  -649.177694383     A.U. after   14 cycles
 SCF Done:  E(RB3LYP) =  -649.173681873     A.U. after   17 cycles
 SCF Done:  E(RB3LYP) =  -649.183622434     A.U. after   11 cycles
 SCF Done:  E(RB3LYP) =  -649.153353781     A.U. after   17 cycles
 SCF Done:  E(RB3LYP) =  -649.149169712     A.U. after   17 cycles
 SCF Done:  E(RB3LYP) =  -649.173681079     A.U. after   19 cycles
 SCF Done:  E(RB3LYP) =  -649.185995987     A.U. after   12 cycles
 SCF Done:  E(RB3LYP) =  -649.147644473     A.U. after   17 cycles
 SCF Done:  E(RB3LYP) =  -649.179027303     A.U. after   14 cycles
 SCF Done:  E(RB3LYP) =  -649.199865732     A.U. after   13 cycles
 SCF Done:  E(RB3LYP) =  -649.170739137     A.U. after   17 cycles
 Normal termination of Gaussian 16 at Sat Oct  7 02:00:56 2023.
 SCF Done:  E(RB3LYP) =  -649.173632907     A.U. after   12 cycles
 Normal termination of Gaussian 16 at Sat Oct  7 02:03:08 2023.
 SCF Done:  E(RB3LYP) =  -649.176354187     A.U. after   12 cycles
 Normal termination of Gaussian 16 at Sat Oct  7 02:05:20 2023.
 Gaussian 16:  ES64L-G16RevB.01 20-Dec-2017

                         Standard orientation:
 ---------------------------------------------------------------------
 Center     Atomic      Atomic             Coordinates (Angstroms)
 Number     Number       Type             X           Y           Z
 ---------------------------------------------------------------------
      1         11           0       -3.518990    0.462399   -0.366488
      2         11           0       -1.456113   -1.908237    0.386335
      3         11           0        1.165837    2.519081    0.246465
      4         11           0        3.809266   -1.073243   -0.266313
 ---------------------------------------------------------------------

 SCF Done:  E(RB3LYP) =  -649.183726479     A.U. after   13 cycles

 The electronic state is 1-A.
 Alpha  occ. eigenvalues --  -38.46211 -38.45084 -38.44749 -38.43846  -2.21882
 Alpha  occ. eigenvalues --   -2.20774  -2.20505  -2.19618  -1.15569  -1.15547
 Alpha  occ. eigenvalues --   -1.15509  -1.14457  -1.14454  -1.14398  -1.14177
 Alpha  occ. eigenvalues --   -1.14159  -1.14149  -1.13282  -1.13280  -1.13259
 Alpha  occ. eigenvalues --   -0.13565  -0.11285
 Alpha virt. eigenvalues --   -0.07559  -0.05554  -0.02800  -0.02711  -0.02018
 Alpha virt. eigenvalues --   -0.01450  -0.01059  -0.00395  -0.00009   0.00200
 Alpha virt. eigenvalues --    0.00469   0.00701   0.00803   0.00967   0.01302

 Mulliken charges:
               1
     1  Na   0.056396
     2  Na  -0.040468
     3  Na  -0.001073
     4  Na  -0.014855
 Sum of Mulliken charges =  -0.00000

 Dipole moment (field-independent basis, Debye):
    X=             -0.2746    Y=              0.2646    Z=              0.0659  Tot=              0.3870
 Quadrupole moment (field-independent basis, Debye-Ang):
   XX=            -44.3348   YY=            -28.9471   ZZ=            -44.8169
   XY=             -9.2771   XZ=              0.6476   YZ=             -0.7659

 Normal termination of Gaussian 16 at Sat Oct  7 02:07:30 2023.
