 Gaussian 16, Revision B.01,
 Gaussian 16:  ES64L-G16RevB.01 20-Dec-2017

 -------------------------
 #P B3LYP/6-311+g(d) force
 -------------------------

 -----
 DPGEN
 -----
 Symbolic Z-matrix:
 Charge =  0 Multiplicity = 2

                         Standard orientation:
 ---------------------------------------------------------------------
 Center     Atomic      Atomic             Coordinates (Angstroms)
 Number     Number       Type             X           Y           Z
 ---------------------------------------------------------------------
      1         11           0       28.799184    6.292999   -0.704589
      2         11           0      -69.794262    4.698290    0.173679
      3         11           0       27.902423    2.453754   -0.754839
      4         11           0       26.045880    0.069602    1.830071
      5         11           0       26.737158   -2.754089    0.722341
      6         11           0       28.862291   -6.032200   -1.029996
      7         11           0      -68.552674   -4.728357   -0.236666
 ---------------------------------------------------------------------

 SCF Done:  E(UB3LYP) =  -1136.06307206     A.U. after   23 cycles

 The electronic state is 2-A.
 Alpha  occ. eigenvalues --  -38.45890 -38.45769 -38.45769 -38.44899 -38.44837
 Alpha  occ. eigenvalues --  -38.44657 -38.44605  -2.21555  -2.21554  -2.21532
 Alpha  occ. eigenvalues --   -2.20627  -2.20515  -2.20430  -2.20390  -1.15248
 Alpha  occ. eigenvalues --   -1.15248  -1.15223  -1.15167  -1.15167  -1.15167
 Alpha  occ. eigenvalues --   -1.15167  -1.15167  -1.15167  -1.14310  -1.14305
 Alpha  occ. eigenvalues --   -1.14214  -1.14212  -1.14212  -1.14173  -1.14159
 Alpha  occ. eigenvalues --   -1.14107  -1.14090  -1.14058  -1.14052  -1.13954
 Alpha  occ. eigenvalues --   -0.14259  -0.12826  -0.12773  -0.11815
 Alpha virt. eigenvalues --   -0.08405  -0.06399  -0.04698  -0.03057  -0.02618
 Alpha virt. eigenvalues --   -0.02372  -0.02185  -0.02185  -0.02100  -0.01995
 Alpha virt. eigenvalues --   -0.01995  -0.01745  -0.01679  -0.01120  -0.00796

  Beta  occ. eigenvalues --  -38.46038 -38.45584 -38.45584 -38.44902 -38.44861
  Beta  occ. eigenvalues --  -38.44700 -38.44581  -2.21808  -2.21209  -2.21208
  Beta  occ. eigenvalues --   -2.20638  -2.20554  -2.20511  -2.20340  -1.15435
  Beta  occ. eigenvalues --   -1.15435  -1.15409  -1.14933  -1.14932  -1.14932
  Beta  occ. eigenvalues --   -1.14932  -1.14932  -1.14932  -1.14296  -1.14296
  Beta  occ. eigenvalues --   -1.14259  -1.14254  -1.14242  -1.14212  -1.14176
  Beta  occ. eigenvalues --   -1.14162  -1.14137  -1.14022  -1.14017  -1.13965
  Beta  occ. eigenvalues --   -0.14630  -0.13049  -0.11908
  Beta virt. eigenvalues --   -0.06758  -0.06338  -0.06248  -0.05167  -0.03194
  Beta virt. eigenvalues --   -0.02901  -0.02425  -0.02156  -0.01856  -0.01363
  Beta virt. eigenvalues --   -0.01263  -0.00412  -0.00402  -0.00308  -0.00308

 Mulliken charges and spin densities:
               1          2
     1  Na   0.078765  -0.319445
     2  Na  -0.000000   1.000000
     3  Na  -0.140505   0.162809
     4  Na   0.325926  -0.204012
     5  Na  -0.329895   0.099454
     6  Na   0.065709  -0.738806
     7  Na   0.000000   1.000000
 Sum of Mulliken charges =  -0.00000   1.00000

 Dipole moment (field-independent basis, Debye):
    X=              0.1313    Y=             -0.8473    Z=              0.0257  Tot=              0.8578
 Quadrupole moment (field-independent basis, Debye-Ang):
   XX=            -67.5770   YY=            -59.4788   ZZ=            -73.8554
   XY=            -25.6536   XZ=             -2.7594   YZ=              4.5155

 Normal termination of Gaussian 16 at Thu Nov 23 12:42:42 2023.
