 Gaussian 16, Revision B.01,

 -------------------------
 #p B3LYP/6-311+g(d) force
 -------------------------

 ----
 Test
 ----
 Symbolic Z-matrix:
 Charge =  0 Multiplicity = 1

 SCF Done:  E(RB3LYP) =  -649.138106971     A.U. after   13 cycles
 Normal termination of Gaussian 16 at Mon Jul  3 12:15:05 2023.

 -------------------------
 #p B3LYP/6-311+g(d) force
 -------------------------

 ----
 Test
 ----
 Symbolic Z-matrix:
 Charge =  0 Multiplicity = 1

 SCF Done:  E(RB3LYP) =  -649.167006475     A.U. after   20 cycles
 Normal termination of Gaussian 16 at Mon Jul  3 12:15:10 2023.
 Gaussian 16:  ES64L-G16RevB.01 20-Dec-2017

 -------------------------
 #p B3LYP/6-311+g(d) force
 -------------------------

 ----
 Test
 ----
 Symbolic Z-matrix:
 Charge =  0 Multiplicity = 1

                         Standard orientation:
 ---------------------------------------------------------------------
 Center     Atomic      Atomic             Coordinates (Angstroms)
 Number     Number       Type             X           Y           Z
 ---------------------------------------------------------------------
      1         11           0        0.000000    0.000000    5.690454
      2         11           0        0.000000    0.000000    1.390723
      3         11           0        0.000000    0.000000   -2.133809
      4         11           0        0.000000    0.000000   -4.947367
 ---------------------------------------------------------------------

 SCF Done:  E(RB3LYP) =  -649.189679498     A.U. after   14 cycles

 The electronic state is 1-SG.
 Alpha  occ. eigenvalues --  -38.45941 -38.45100 -38.45085 -38.44066  -2.21627
 Alpha  occ. eigenvalues --   -2.20921  -2.20802  -2.19916  -1.15305  -1.15305
 Alpha  occ. eigenvalues --   -1.15251  -1.14687  -1.14551  -1.14551  -1.14488
 Alpha  occ. eigenvalues --   -1.14488  -1.14423  -1.13583  -1.13556  -1.13556
 Alpha  occ. eigenvalues --   -0.14506  -0.12017
 Alpha virt. eigenvalues --   -0.08211  -0.04162  -0.03092  -0.03092  -0.01877
 Alpha virt. eigenvalues --   -0.01877  -0.01383  -0.00066  -0.00066   0.00152
 Alpha virt. eigenvalues --    0.00258   0.01095   0.01187   0.01187   0.01282

 Mulliken charges:
               1
     1  Na   0.229918
     2  Na  -0.042210
     3  Na  -0.435469
     4  Na   0.247761
 Sum of Mulliken charges =   0.00000

 Dipole moment (field-independent basis, Debye):
    X=              0.0000    Y=              0.0000    Z=             -0.2127  Tot=              0.2127
 Quadrupole moment (field-independent basis, Debye-Ang):
   XX=            -44.3997   YY=            -44.3997   ZZ=            -15.1985
   XY=              0.0000   XZ=              0.0000   YZ=              0.0000

 Normal termination of Gaussian 16 at Mon Jul  3 12:15:14 2023.
