 Gaussian 16, Revision B.01,

 -------------------------
 #p B3LYP/6-311+g(d) force
 -------------------------

 (Enter /home/sekinelabo/g16/l101.exe)

 Symbolic Z-matrix:
 Charge =  0 Multiplicity = 1

 SCF Done:  E(RB3LYP) =  -649.174934460     A.U. after   13 cycles
 Normal termination of Gaussian 16 at Sat Sep 23 10:11:00 2023.

 -------------------------
 #p B3LYP/6-311+g(d) force
 -------------------------

 (Enter /home/sekinelabo/g16/l101.exe)

 Symbolic Z-matrix:
 Charge =  0 Multiplicity = 1

 SCF Done:  E(RB3LYP) =  -649.165536808     A.U. after   16 cycles
 Normal termination of Gaussian 16 at Sat Sep 23 10:11:03 2023.

 -------------------------
 #p B3LYP/6-311+g(d) force
 -------------------------

 (Enter /home/sekinelabo/g16/l101.exe)

 Symbolic Z-matrix:
 Charge =  0 Multiplicity = 1

 SCF Done:  E(RB3LYP) =  -649.177640106     A.U. after   11 cycles
 Normal termination of Gaussian 16 at Sat Sep 23 10:11:05 2023.

 -------------------------
 #p B3LYP/6-311+g(d) force
 -------------------------

 (Enter /home/sekinelabo/g16/l101.exe)

 Symbolic Z-matrix:
 Charge =  0 Multiplicity = 1

 SCF Done:  E(RB3LYP) =  -649.175369893     A.U. after   12 cycles
 Normal termination of Gaussian 16 at Sat Sep 23 10:11:08 2023.
 Gaussian 16:  ES64L-G16RevB.01 20-Dec-2017

 -------------------------
 #p B3LYP/6-311+g(d) force
 -------------------------

 (Enter /home/sekinelabo/g16/l101.exe)

 Symbolic Z-matrix:
 Charge =  0 Multiplicity = 1

                         Standard orientation:
 ---------------------------------------------------------------------
 Center     Atomic      Atomic             Coordinates (Angstroms)
 Number     Number       Type             X           Y           Z
 ---------------------------------------------------------------------
      1         11           0       -1.549777    0.134970    1.567994
      2         11           0       -2.935825   -0.815600   -1.013112
      3         11           0        3.479926   -1.159857    0.005558
      4         11           0        1.005676    1.840487   -0.560439
 ---------------------------------------------------------------------

 SCF Done:  E(RB3LYP) =  -649.195699923     A.U. after   12 cycles

 The electronic state is 1-A.
 Alpha  occ. eigenvalues --  -38.44956 -38.44512 -38.44269 -38.44176  -2.20682
 Alpha  occ. eigenvalues --   -2.20318  -2.19981  -2.19965  -1.14377  -1.14342
 Alpha  occ. eigenvalues --   -1.14300  -1.14015  -1.13985  -1.13951  -1.13662
 Alpha  occ. eigenvalues --   -1.13661  -1.13625  -1.13617  -1.13600  -1.13599
 Alpha  occ. eigenvalues --   -0.14540  -0.11091
 Alpha virt. eigenvalues --   -0.06691  -0.05568  -0.02867  -0.02380  -0.01847
 Alpha virt. eigenvalues --   -0.01094  -0.00716  -0.00277  -0.00186   0.00425
 Alpha virt. eigenvalues --    0.00563   0.00901   0.01014   0.01399   0.01531

 Mulliken charges:
               1
     1  Na  -0.100657
     2  Na   0.161342
     3  Na   0.045499
     4  Na  -0.106184
 Sum of Mulliken charges =  -0.00000

 Dipole moment (field-independent basis, Debye):
    X=             -0.7310    Y=             -0.0332    Z=             -0.0822  Tot=              0.7364
 Quadrupole moment (field-independent basis, Debye-Ang):
   XX=            -47.0003   YY=            -35.8041   ZZ=            -35.3082
   XY=             -2.9123   XZ=              3.0756   YZ=              0.0649

 Normal termination of Gaussian 16 at Sat Sep 23 10:11:10 2023.
