 Gaussian 16, Revision B.01,

 -------------------------
 #p B3LYP/6-311+g(d) force
 -------------------------

 (Enter /home/sekinelabo/g16/l101.exe)

 Symbolic Z-matrix:
 Charge =  0 Multiplicity = 1

 SCF Done:  E(RB3LYP) =  -649.171152546     A.U. after   18 cycles
 Normal termination of Gaussian 16 at Wed Oct  4 14:13:53 2023.

 -------------------------
 #p B3LYP/6-311+g(d) force
 -------------------------

 (Enter /home/sekinelabo/g16/l101.exe)

 Symbolic Z-matrix:
 Charge =  0 Multiplicity = 1

 SCF Done:  E(RB3LYP) =  -649.185775801     A.U. after   15 cycles
 Normal termination of Gaussian 16 at Wed Oct  4 14:16:08 2023.

 -------------------------
 #p B3LYP/6-311+g(d) force
 -------------------------

 (Enter /home/sekinelabo/g16/l101.exe)

 Symbolic Z-matrix:
 Charge =  0 Multiplicity = 1

 SCF Done:  E(RB3LYP) =  -649.178432438     A.U. after   16 cycles
 Normal termination of Gaussian 16 at Wed Oct  4 14:18:28 2023.

 -------------------------
 #p B3LYP/6-311+g(d) force
 -------------------------

 (Enter /home/sekinelabo/g16/l101.exe)

 Symbolic Z-matrix:
 Charge =  0 Multiplicity = 1

 SCF Done:  E(RB3LYP) =  -649.158962481     A.U. after   13 cycles
 Normal termination of Gaussian 16 at Wed Oct  4 14:20:28 2023.

 -------------------------
 #p B3LYP/6-311+g(d) force
 -------------------------

 (Enter /home/sekinelabo/g16/l101.exe)

 Symbolic Z-matrix:
 Charge =  0 Multiplicity = 1

 SCF Done:  E(RB3LYP) =  -649.173935527     A.U. after   15 cycles

 -------------------------
 #p B3LYP/6-311+g(d) force
 -------------------------

 (Enter /home/sekinelabo/g16/l101.exe)

 Symbolic Z-matrix:
 Charge =  0 Multiplicity = 1

 SCF Done:  E(RB3LYP) =  -649.187420530     A.U. after   12 cycles
 SCF Done:  E(RB3LYP) =  -649.185807634     A.U. after   15 cycles
 SCF Done:  E(RB3LYP) =  -649.131146537     A.U. after   19 cycles
 SCF Done:  E(RB3LYP) =  -649.202900757     A.U. after   13 cycles
 SCF Done:  E(RB3LYP) =  -649.177818176     A.U. after   15 cycles
 SCF Done:  E(RB3LYP) =  -649.203574316     A.U. after   12 cycles
 SCF Done:  E(RB3LYP) =  -649.197225014     A.U. after   12 cycles
 SCF Done:  E(RB3LYP) =  -649.176024778     A.U. after   17 cycles
 SCF Done:  E(RB3LYP) =  -649.166681915     A.U. after   12 cycles
 SCF Done:  E(RB3LYP) =  -649.185932355     A.U. after   14 cycles
 SCF Done:  E(RB3LYP) =  -649.183909184     A.U. after   16 cycles
 SCF Done:  E(RB3LYP) =  -649.177662827     A.U. after   14 cycles
 Normal termination of Gaussian 16 at Wed Oct  4 15:24:16 2023.
 SCF Done:  E(RB3LYP) =  -649.178529466     A.U. after   15 cycles
 Normal termination of Gaussian 16 at Wed Oct  4 15:25:56 2023.
 SCF Done:  E(RB3LYP) =  -649.194773924     A.U. after   13 cycles
 Normal termination of Gaussian 16 at Wed Oct  4 15:27:31 2023.
 Gaussian 16:  ES64L-G16RevB.01 20-Dec-2017

                         Standard orientation:
 ---------------------------------------------------------------------
 Center     Atomic      Atomic             Coordinates (Angstroms)
 Number     Number       Type             X           Y           Z
 ---------------------------------------------------------------------
      1         11           0        0.407963   -1.590651    0.823993
      2         11           0        4.170541    1.386602   -0.255439
      3         11           0       -3.169731    2.752192    0.040775
      4         11           0       -1.408773   -2.548143   -0.609329
 ---------------------------------------------------------------------

 SCF Done:  E(RB3LYP) =  -649.053136273     A.U. after  129 cycles

 The electronic state is 1-A.
 Alpha  occ. eigenvalues --  -38.49869 -38.45105 -38.44218 -38.42957  -2.25385
 Alpha  occ. eigenvalues --   -2.21005  -2.20017  -2.18585  -1.19053  -1.19051
 Alpha  occ. eigenvalues --   -1.19027  -1.15074  -1.14593  -1.14583  -1.13625
 Alpha  occ. eigenvalues --   -1.13615  -1.13577  -1.12264  -1.12260  -1.12240
 Alpha  occ. eigenvalues --   -0.14009  -0.10874
 Alpha virt. eigenvalues --   -0.08486  -0.04582  -0.03406  -0.02944  -0.02126
 Alpha virt. eigenvalues --   -0.01685  -0.00784  -0.00750  -0.00208   0.00131
 Alpha virt. eigenvalues --    0.00149   0.00789   0.00969   0.01130   0.01233

 Mulliken charges:
               1
     1  Na  -0.180973
     2  Na   0.956572
     3  Na  -0.938600
     4  Na   0.163001
 Sum of Mulliken charges =  -0.00000

 Dipole moment (field-independent basis, Debye):
    X=             32.9798    Y=             -7.1061    Z=             -0.8210  Tot=             33.7467
 Quadrupole moment (field-independent basis, Debye-Ang):
   XX=            -17.6971   YY=            -69.7434   ZZ=            -41.6768
   XY=             70.4394   XZ=             -1.3413   YZ=              0.0435

 Error termination via Lnk1e in /home/sekinelabo/g16/l701.exe at Wed Oct  4 15:37:51 2023.
