 Gaussian 16, Revision B.01,

 -------------------------
 #p B3LYP/6-311+g(d) force
 -------------------------

 (Enter /home/sekinelabo/g16/l101.exe)

 Symbolic Z-matrix:
 Charge =  0 Multiplicity = 1

 SCF Done:  E(RB3LYP) =  -649.184533566     A.U. after   12 cycles
 Normal termination of Gaussian 16 at Fri Oct  6 22:01:43 2023.

 -------------------------
 #p B3LYP/6-311+g(d) force
 -------------------------

 (Enter /home/sekinelabo/g16/l101.exe)

 Symbolic Z-matrix:
 Charge =  0 Multiplicity = 1

 SCF Done:  E(RB3LYP) =  -649.164842927     A.U. after   15 cycles
 Normal termination of Gaussian 16 at Fri Oct  6 22:04:15 2023.

 -------------------------
 #p B3LYP/6-311+g(d) force
 -------------------------

 (Enter /home/sekinelabo/g16/l101.exe)

 Symbolic Z-matrix:
 Charge =  0 Multiplicity = 1

 SCF Done:  E(RB3LYP) =  -649.173193319     A.U. after   15 cycles
 Normal termination of Gaussian 16 at Fri Oct  6 22:06:47 2023.

 -------------------------
 #p B3LYP/6-311+g(d) force
 -------------------------

 (Enter /home/sekinelabo/g16/l101.exe)

 Symbolic Z-matrix:
 Charge =  0 Multiplicity = 1

 SCF Done:  E(RB3LYP) =  -649.156776219     A.U. after   15 cycles
 Normal termination of Gaussian 16 at Fri Oct  6 22:09:17 2023.

 -------------------------
 #p B3LYP/6-311+g(d) force
 -------------------------

 (Enter /home/sekinelabo/g16/l101.exe)

 Symbolic Z-matrix:
 Charge =  0 Multiplicity = 1

 SCF Done:  E(RB3LYP) =  -649.168477722     A.U. after   20 cycles

 -------------------------
 #p B3LYP/6-311+g(d) force
 -------------------------

 (Enter /home/sekinelabo/g16/l101.exe)

 Symbolic Z-matrix:
 Charge =  0 Multiplicity = 1

 SCF Done:  E(RB3LYP) =  -649.155409679     A.U. after   13 cycles
 SCF Done:  E(RB3LYP) =  -649.182431536     A.U. after   13 cycles
 SCF Done:  E(RB3LYP) =  -649.175061344     A.U. after   18 cycles
 SCF Done:  E(RB3LYP) =  -649.190426263     A.U. after   14 cycles
 SCF Done:  E(RB3LYP) =  -649.181194191     A.U. after   17 cycles
 SCF Done:  E(RB3LYP) =  -649.177309525     A.U. after   16 cycles
 SCF Done:  E(RB3LYP) =  -649.149649597     A.U. after   13 cycles
 SCF Done:  E(RB3LYP) =  -649.159171894     A.U. after   17 cycles
 SCF Done:  E(RB3LYP) =  -649.197993685     A.U. after   11 cycles
 SCF Done:  E(RB3LYP) =  -649.186355984     A.U. after   16 cycles
 SCF Done:  E(RB3LYP) =  -649.168117108     A.U. after   17 cycles
 SCF Done:  E(RB3LYP) =  -649.186958581     A.U. after   15 cycles
 Normal termination of Gaussian 16 at Sat Oct  7 02:07:09 2023.
 SCF Done:  E(RB3LYP) =  -649.177176094     A.U. after   13 cycles
 Normal termination of Gaussian 16 at Sat Oct  7 02:09:00 2023.
 SCF Done:  E(RB3LYP) =  -649.191809017     A.U. after   12 cycles
 Normal termination of Gaussian 16 at Sat Oct  7 02:10:22 2023.
 Gaussian 16:  ES64L-G16RevB.01 20-Dec-2017

                         Standard orientation:
 ---------------------------------------------------------------------
 Center     Atomic      Atomic             Coordinates (Angstroms)
 Number     Number       Type             X           Y           Z
 ---------------------------------------------------------------------
      1         11           0        1.462079   -0.795246   -0.203657
      2         11           0        5.025157    0.829374    0.040592
      3         11           0       -1.000745   -0.711646    0.220351
      4         11           0       -5.486491    0.677518   -0.057286
 ---------------------------------------------------------------------

 SCF Done:  E(RB3LYP) =  -649.167421167     A.U. after   18 cycles

 The electronic state is 1-A.
 Alpha  occ. eigenvalues --  -38.46258 -38.46011 -38.45498 -38.45068  -2.21938
 Alpha  occ. eigenvalues --   -2.21712  -2.21367  -2.20931  -1.15614  -1.15614
 Alpha  occ. eigenvalues --   -1.15576  -1.15561  -1.15387  -1.15387  -1.15343
 Alpha  occ. eigenvalues --   -1.14963  -1.14960  -1.14528  -1.14519  -1.14352
 Alpha  occ. eigenvalues --   -0.14575  -0.11461
 Alpha virt. eigenvalues --   -0.08905  -0.04417  -0.03179  -0.03142  -0.01825
 Alpha virt. eigenvalues --   -0.01701  -0.01586  -0.00674  -0.00510   0.00069
 Alpha virt. eigenvalues --    0.00091   0.00993   0.01186   0.01290   0.01368

 Mulliken charges:
               1
     1  Na  -0.104848
     2  Na   0.282948
     3  Na  -0.254401
     4  Na   0.076301
 Sum of Mulliken charges =   0.00000

 Dipole moment (field-independent basis, Debye):
    X=              0.3648    Y=              0.5640    Z=              0.0208  Tot=              0.6720
 Quadrupole moment (field-independent basis, Debye-Ang):
   XX=            -21.0963   YY=            -42.4718   ZZ=            -44.6023
   XY=              0.8463   XZ=              0.4431   YZ=              0.1154

 Normal termination of Gaussian 16 at Sat Oct  7 02:11:43 2023.
