 Gaussian 16, Revision B.01,

 -------------------------
 #p B3LYP/6-311+g(d) force
 -------------------------

 (Enter /home/sekinelabo/g16/l101.exe)

 Symbolic Z-matrix:
 Charge =  0 Multiplicity = 1

 SCF Done:  E(RB3LYP) =  -649.196248228     A.U. after   12 cycles
 Normal termination of Gaussian 16 at Wed Oct  4 14:13:15 2023.

 -------------------------
 #p B3LYP/6-311+g(d) force
 -------------------------

 (Enter /home/sekinelabo/g16/l101.exe)

 Symbolic Z-matrix:
 Charge =  0 Multiplicity = 1

 SCF Done:  E(RB3LYP) =  -649.164998339     A.U. after   17 cycles
 Normal termination of Gaussian 16 at Wed Oct  4 14:15:41 2023.

 -------------------------
 #p B3LYP/6-311+g(d) force
 -------------------------

 (Enter /home/sekinelabo/g16/l101.exe)

 Symbolic Z-matrix:
 Charge =  0 Multiplicity = 1

 SCF Done:  E(RB3LYP) =  -649.162538928     A.U. after   16 cycles
 Normal termination of Gaussian 16 at Wed Oct  4 14:18:01 2023.

 -------------------------
 #p B3LYP/6-311+g(d) force
 -------------------------

 (Enter /home/sekinelabo/g16/l101.exe)

 Symbolic Z-matrix:
 Charge =  0 Multiplicity = 1

 SCF Done:  E(RB3LYP) =  -649.188911428     A.U. after   14 cycles
 Normal termination of Gaussian 16 at Wed Oct  4 14:20:12 2023.

 -------------------------
 #p B3LYP/6-311+g(d) force
 -------------------------

 (Enter /home/sekinelabo/g16/l101.exe)

 Symbolic Z-matrix:
 Charge =  0 Multiplicity = 1

 SCF Done:  E(RB3LYP) =  -649.185947026     A.U. after   15 cycles

 -------------------------
 #p B3LYP/6-311+g(d) force
 -------------------------

 (Enter /home/sekinelabo/g16/l101.exe)

 Symbolic Z-matrix:
 Charge =  0 Multiplicity = 1

 SCF Done:  E(RB3LYP) =  -649.146434435     A.U. after   19 cycles
 SCF Done:  E(RB3LYP) =  -649.157919039     A.U. after   16 cycles
 SCF Done:  E(RB3LYP) =  -649.190918951     A.U. after   12 cycles
 SCF Done:  E(RB3LYP) =  -649.187988353     A.U. after   12 cycles
 SCF Done:  E(RB3LYP) =  -649.192259602     A.U. after   14 cycles
 SCF Done:  E(RB3LYP) =  -649.177687932     A.U. after   21 cycles
 SCF Done:  E(RB3LYP) =  -649.180067231     A.U. after   12 cycles
 SCF Done:  E(RB3LYP) =  -649.201564936     A.U. after   12 cycles
 SCF Done:  E(RB3LYP) =  -649.204127608     A.U. after   12 cycles
 SCF Done:  E(RB3LYP) =  -649.172409167     A.U. after   18 cycles
 SCF Done:  E(RB3LYP) =  -649.182141429     A.U. after   11 cycles
 SCF Done:  E(RB3LYP) =  -649.184847035     A.U. after   16 cycles
 Normal termination of Gaussian 16 at Wed Oct  4 16:56:41 2023.
 SCF Done:  E(RB3LYP) =  -649.135543904     A.U. after   15 cycles
 Normal termination of Gaussian 16 at Wed Oct  4 16:58:08 2023.
 SCF Done:  E(RB3LYP) =  -649.199048151     A.U. after   12 cycles
 Normal termination of Gaussian 16 at Wed Oct  4 16:58:52 2023.
 Gaussian 16:  ES64L-G16RevB.01 20-Dec-2017

                         Standard orientation:
 ---------------------------------------------------------------------
 Center     Atomic      Atomic             Coordinates (Angstroms)
 Number     Number       Type             X           Y           Z
 ---------------------------------------------------------------------
      1         11           0       -3.664068    0.071437   -0.575399
      2         11           0        0.078822   -1.086941    1.416905
      3         11           0        1.281842    1.949657    0.275712
      4         11           0        2.303403   -0.934152   -1.117218
 ---------------------------------------------------------------------

 SCF Done:  E(RB3LYP) =  -649.186441490     A.U. after   16 cycles

 The electronic state is 1-A.
 Alpha  occ. eigenvalues --  -38.46834 -38.45140 -38.44985 -38.42705  -2.22604
 Alpha  occ. eigenvalues --   -2.20924  -2.20790  -2.18417  -1.16292  -1.16249
 Alpha  occ. eigenvalues --   -1.16224  -1.14643  -1.14593  -1.14530  -1.14464
 Alpha  occ. eigenvalues --   -1.14448  -1.14409  -1.12101  -1.12098  -1.12046
 Alpha  occ. eigenvalues --   -0.15823  -0.09972
 Alpha virt. eigenvalues --   -0.07278  -0.06297  -0.03267  -0.02238  -0.01709
 Alpha virt. eigenvalues --   -0.01502  -0.00710  -0.00405  -0.00173   0.00106
 Alpha virt. eigenvalues --    0.00409   0.00718   0.01127   0.01310   0.01440

 Mulliken charges:
               1
     1  Na  -0.102535
     2  Na  -0.285258
     3  Na   0.226806
     4  Na   0.160986
 Sum of Mulliken charges =  -0.00000

 Dipole moment (field-independent basis, Debye):
    X=              3.3078    Y=              0.7961    Z=              0.1448  Tot=              3.4054
 Quadrupole moment (field-independent basis, Debye-Ang):
   XX=            -54.9194   YY=            -30.2407   ZZ=            -39.3815
   XY=             -2.4127   XZ=              2.6689   YZ=              1.5035

 Normal termination of Gaussian 16 at Wed Oct  4 16:59:27 2023.
