 Gaussian 16, Revision B.01,

 -------------------------
 #p B3LYP/6-311+g(d) force
 -------------------------

 (Enter /home/sekinelabo/g16/l101.exe)

 Symbolic Z-matrix:
 Charge =  0 Multiplicity = 1

 SCF Done:  E(RB3LYP) =  -649.174995315     A.U. after   17 cycles
 Normal termination of Gaussian 16 at Wed Oct  4 14:13:44 2023.

 -------------------------
 #p B3LYP/6-311+g(d) force
 -------------------------

 (Enter /home/sekinelabo/g16/l101.exe)

 Symbolic Z-matrix:
 Charge =  0 Multiplicity = 1

 SCF Done:  E(RB3LYP) =  -649.164783302     A.U. after   15 cycles
 Normal termination of Gaussian 16 at Wed Oct  4 14:16:02 2023.

 -------------------------
 #p B3LYP/6-311+g(d) force
 -------------------------

 (Enter /home/sekinelabo/g16/l101.exe)

 Symbolic Z-matrix:
 Charge =  0 Multiplicity = 1

 SCF Done:  E(RB3LYP) =  -649.184342822     A.U. after   11 cycles
 Normal termination of Gaussian 16 at Wed Oct  4 14:17:51 2023.

 -------------------------
 #p B3LYP/6-311+g(d) force
 -------------------------

 (Enter /home/sekinelabo/g16/l101.exe)

 Symbolic Z-matrix:
 Charge =  0 Multiplicity = 1

 SCF Done:  E(RB3LYP) =  -649.168498744     A.U. after   20 cycles
 Normal termination of Gaussian 16 at Wed Oct  4 14:20:39 2023.

 -------------------------
 #p B3LYP/6-311+g(d) force
 -------------------------

 (Enter /home/sekinelabo/g16/l101.exe)

 Symbolic Z-matrix:
 Charge =  0 Multiplicity = 1

 SCF Done:  E(RB3LYP) =  -649.185187463     A.U. after   15 cycles

 -------------------------
 #p B3LYP/6-311+g(d) force
 -------------------------

 (Enter /home/sekinelabo/g16/l101.exe)

 Symbolic Z-matrix:
 Charge =  0 Multiplicity = 1

 SCF Done:  E(RB3LYP) =  -649.137397793     A.U. after   20 cycles
 SCF Done:  E(RB3LYP) =  -649.160127672     A.U. after   18 cycles
 SCF Done:  E(RB3LYP) =  -649.179302751     A.U. after   15 cycles
 SCF Done:  E(RB3LYP) =  -649.182970337     A.U. after   11 cycles
 SCF Done:  E(RB3LYP) =  -649.188324392     A.U. after   14 cycles
 SCF Done:  E(RB3LYP) =  -649.185745018     A.U. after   11 cycles
 SCF Done:  E(RB3LYP) =  -649.193560347     A.U. after   15 cycles
 SCF Done:  E(RB3LYP) =  -649.145877112     A.U. after   18 cycles
 SCF Done:  E(RB3LYP) =  -649.166463448     A.U. after   17 cycles
 SCF Done:  E(RB3LYP) =  -649.195119156     A.U. after   12 cycles
 SCF Done:  E(RB3LYP) =  -649.174322541     A.U. after   16 cycles
 SCF Done:  E(RB3LYP) =  -649.178550142     A.U. after   12 cycles
 Normal termination of Gaussian 16 at Wed Oct  4 16:54:08 2023.
 SCF Done:  E(RB3LYP) =  -649.170970963     A.U. after   18 cycles
 Normal termination of Gaussian 16 at Wed Oct  4 16:55:44 2023.
 SCF Done:  E(RB3LYP) =  -649.166186186     A.U. after   19 cycles
 Normal termination of Gaussian 16 at Wed Oct  4 16:57:26 2023.
 Gaussian 16:  ES64L-G16RevB.01 20-Dec-2017

                         Standard orientation:
 ---------------------------------------------------------------------
 Center     Atomic      Atomic             Coordinates (Angstroms)
 Number     Number       Type             X           Y           Z
 ---------------------------------------------------------------------
      1         11           0       -0.569793   -0.554298    0.416739
      2         11           0       -4.248426   -0.040730   -0.253711
      3         11           0        3.673469   -0.462697   -0.258548
      4         11           0        1.144750    1.057725    0.095521
 ---------------------------------------------------------------------

 SCF Done:  E(RB3LYP) =  -649.181887157     A.U. after   12 cycles

 The electronic state is 1-A.
 Alpha  occ. eigenvalues --  -38.45928 -38.45458 -38.44766 -38.44231  -2.21955
 Alpha  occ. eigenvalues --   -2.21350  -2.20575  -2.19951  -1.16406  -1.15507
 Alpha  occ. eigenvalues --   -1.15490  -1.14934  -1.14874  -1.14671  -1.14247
 Alpha  occ. eigenvalues --   -1.14226  -1.14214  -1.13628  -1.13627  -1.13572
 Alpha  occ. eigenvalues --   -0.15807  -0.11465
 Alpha virt. eigenvalues --   -0.06729  -0.04685  -0.03696  -0.02480  -0.01674
 Alpha virt. eigenvalues --   -0.01239  -0.00436   0.00173   0.00262   0.00450
 Alpha virt. eigenvalues --    0.00651   0.00972   0.01255   0.01287   0.01509

 Mulliken charges:
               1
     1  Na  -0.238550
     2  Na   0.020310
     3  Na   0.156154
     4  Na   0.062086
 Sum of Mulliken charges =   0.00000

 Dipole moment (field-independent basis, Debye):
    X=              1.3371    Y=             -0.0615    Z=             -0.1898  Tot=              1.3519
 Quadrupole moment (field-independent basis, Debye-Ang):
   XX=            -30.8191   YY=            -38.8169   ZZ=            -43.0486
   XY=             -2.8854   XZ=              0.4441   YZ=             -0.1307

 Normal termination of Gaussian 16 at Wed Oct  4 16:58:34 2023.
