 Gaussian 16, Revision B.01,

 -------------------------
 #p B3LYP/6-311+g(d) force
 -------------------------

 (Enter /home/sekinelabo/g16/l101.exe)

 Symbolic Z-matrix:
 Charge =  0 Multiplicity = 1

 SCF Done:  E(RB3LYP) =  -649.172199282     A.U. after   13 cycles
 Normal termination of Gaussian 16 at Fri Oct  6 22:01:50 2023.

 -------------------------
 #p B3LYP/6-311+g(d) force
 -------------------------

 (Enter /home/sekinelabo/g16/l101.exe)

 Symbolic Z-matrix:
 Charge =  0 Multiplicity = 1

 SCF Done:  E(RB3LYP) =  -649.160507542     A.U. after   17 cycles
 Normal termination of Gaussian 16 at Fri Oct  6 22:04:38 2023.

 -------------------------
 #p B3LYP/6-311+g(d) force
 -------------------------

 (Enter /home/sekinelabo/g16/l101.exe)

 Symbolic Z-matrix:
 Charge =  0 Multiplicity = 1

 SCF Done:  E(RB3LYP) =  -649.170789636     A.U. after   17 cycles
 Normal termination of Gaussian 16 at Fri Oct  6 22:07:25 2023.

 -------------------------
 #p B3LYP/6-311+g(d) force
 -------------------------

 (Enter /home/sekinelabo/g16/l101.exe)

 Symbolic Z-matrix:
 Charge =  0 Multiplicity = 1

 SCF Done:  E(RB3LYP) =  -649.199901775     A.U. after   11 cycles
 Normal termination of Gaussian 16 at Fri Oct  6 22:09:31 2023.

 -------------------------
 #p B3LYP/6-311+g(d) force
 -------------------------

 (Enter /home/sekinelabo/g16/l101.exe)

 Symbolic Z-matrix:
 Charge =  0 Multiplicity = 1

 SCF Done:  E(RB3LYP) =  -649.127945672     A.U. after   15 cycles

 -------------------------
 #p B3LYP/6-311+g(d) force
 -------------------------

 (Enter /home/sekinelabo/g16/l101.exe)

 Symbolic Z-matrix:
 Charge =  0 Multiplicity = 1

 SCF Done:  E(RB3LYP) =  -649.190165346     A.U. after   15 cycles
 SCF Done:  E(RB3LYP) =  -649.177510350     A.U. after   14 cycles
 SCF Done:  E(RB3LYP) =  -649.192263667     A.U. after   15 cycles
 SCF Done:  E(RB3LYP) =  -649.180416452     A.U. after   17 cycles
 SCF Done:  E(RB3LYP) =  -649.168816709     A.U. after   13 cycles
 SCF Done:  E(RB3LYP) =  -649.178047580     A.U. after   14 cycles
 SCF Done:  E(RB3LYP) =  -649.152464968     A.U. after   18 cycles
 SCF Done:  E(RB3LYP) =  -649.150633757     A.U. after   18 cycles
 SCF Done:  E(RB3LYP) =  -649.194612580     A.U. after   13 cycles
 SCF Done:  E(RB3LYP) =  -649.157563161     A.U. after   17 cycles
 SCF Done:  E(RB3LYP) =  -649.181894889     A.U. after   13 cycles
 SCF Done:  E(RB3LYP) =  -649.169843319     A.U. after   19 cycles
 Normal termination of Gaussian 16 at Sat Oct  7 02:06:52 2023.
 SCF Done:  E(RB3LYP) =  -649.155669163     A.U. after   22 cycles
 Normal termination of Gaussian 16 at Sat Oct  7 02:09:22 2023.
 SCF Done:  E(RB3LYP) =  -649.185773450     A.U. after   15 cycles
 Normal termination of Gaussian 16 at Sat Oct  7 02:10:49 2023.
 Gaussian 16:  ES64L-G16RevB.01 20-Dec-2017

                         Standard orientation:
 ---------------------------------------------------------------------
 Center     Atomic      Atomic             Coordinates (Angstroms)
 Number     Number       Type             X           Y           Z
 ---------------------------------------------------------------------
      1         11           0        1.203201    1.476630    0.466837
      2         11           0        3.008234   -0.552169   -0.649438
      3         11           0       -3.484521    0.285622   -0.552906
      4         11           0       -0.726914   -1.210082    0.735506
 ---------------------------------------------------------------------

 SCF Done:  E(RB3LYP) =  -649.204179227     A.U. after   12 cycles

 The electronic state is 1-A.
 Alpha  occ. eigenvalues --  -38.45053 -38.44156 -38.44009 -38.43126  -2.20907
 Alpha  occ. eigenvalues --   -2.19970  -2.19838  -2.18889  -1.14609  -1.14572
 Alpha  occ. eigenvalues --   -1.14535  -1.13670  -1.13644  -1.13570  -1.13512
 Alpha  occ. eigenvalues --   -1.13484  -1.13474  -1.12560  -1.12558  -1.12523
 Alpha  occ. eigenvalues --   -0.15432  -0.11221
 Alpha virt. eigenvalues --   -0.05811  -0.05623  -0.03239  -0.02088  -0.01713
 Alpha virt. eigenvalues --   -0.00953  -0.00608   0.00093   0.00271   0.00514
 Alpha virt. eigenvalues --    0.00750   0.00969   0.01037   0.01414   0.01545

 Mulliken charges:
               1
     1  Na  -0.021638
     2  Na   0.162630
     3  Na   0.067658
     4  Na  -0.208650
 Sum of Mulliken charges =  -0.00000

 Dipole moment (field-independent basis, Debye):
    X=              1.1941    Y=              0.2421    Z=             -0.0429  Tot=              1.2191
 Quadrupole moment (field-independent basis, Debye-Ang):
   XX=            -43.4005   YY=            -33.4413   ZZ=            -40.5211
   XY=             -4.6644   XZ=              0.5927   YZ=              0.5685

 Normal termination of Gaussian 16 at Sat Oct  7 02:11:48 2023.
