 Gaussian 16, Revision B.01,

 -------------------------
 #p B3LYP/6-311+g(d) force
 -------------------------

 (Enter /home/sekinelabo/g16/l101.exe)

 Symbolic Z-matrix:
 Charge =  0 Multiplicity = 1

 SCF Done:  E(RB3LYP) =  -649.166444992     A.U. after   14 cycles
 Normal termination of Gaussian 16 at Wed Oct  4 14:13:27 2023.

 -------------------------
 #p B3LYP/6-311+g(d) force
 -------------------------

 (Enter /home/sekinelabo/g16/l101.exe)

 Symbolic Z-matrix:
 Charge =  0 Multiplicity = 1

 SCF Done:  E(RB3LYP) =  -649.165655793     A.U. after   18 cycles
 Normal termination of Gaussian 16 at Wed Oct  4 14:16:02 2023.

 -------------------------
 #p B3LYP/6-311+g(d) force
 -------------------------

 (Enter /home/sekinelabo/g16/l101.exe)

 Symbolic Z-matrix:
 Charge =  0 Multiplicity = 1

 SCF Done:  E(RB3LYP) =  -649.202392863     A.U. after   12 cycles
 Normal termination of Gaussian 16 at Wed Oct  4 14:17:58 2023.

 -------------------------
 #p B3LYP/6-311+g(d) force
 -------------------------

 (Enter /home/sekinelabo/g16/l101.exe)

 Symbolic Z-matrix:
 Charge =  0 Multiplicity = 1

 SCF Done:  E(RB3LYP) =  -649.146429504     A.U. after   17 cycles
 Normal termination of Gaussian 16 at Wed Oct  4 14:20:29 2023.

 -------------------------
 #p B3LYP/6-311+g(d) force
 -------------------------

 (Enter /home/sekinelabo/g16/l101.exe)

 Symbolic Z-matrix:
 Charge =  0 Multiplicity = 1

 SCF Done:  E(RB3LYP) =  -649.167081732     A.U. after   19 cycles

 -------------------------
 #p B3LYP/6-311+g(d) force
 -------------------------

 (Enter /home/sekinelabo/g16/l101.exe)

 Symbolic Z-matrix:
 Charge =  0 Multiplicity = 1

 SCF Done:  E(RB3LYP) =  -649.185748969     A.U. after   15 cycles
 SCF Done:  E(RB3LYP) =  -649.158928158     A.U. after   22 cycles
 SCF Done:  E(RB3LYP) =  -649.184630821     A.U. after   15 cycles
 SCF Done:  E(RB3LYP) =  -649.194304709     A.U. after   12 cycles
 SCF Done:  E(RB3LYP) =  -649.167253117     A.U. after   13 cycles
 SCF Done:  E(RB3LYP) =  -649.183198029     A.U. after   13 cycles
 SCF Done:  E(RB3LYP) =  -649.160579673     A.U. after   17 cycles
 SCF Done:  E(RB3LYP) =  -649.182730799     A.U. after   13 cycles
 SCF Done:  E(RB3LYP) =  -649.191536598     A.U. after   12 cycles
 SCF Done:  E(RB3LYP) =  -649.178109805     A.U. after   16 cycles
 SCF Done:  E(RB3LYP) =  -649.198376292     A.U. after   11 cycles
 SCF Done:  E(RB3LYP) =  -649.177355463     A.U. after   15 cycles
 Normal termination of Gaussian 16 at Wed Oct  4 16:54:15 2023.
 SCF Done:  E(RB3LYP) =  -649.168797965     A.U. after   13 cycles
 Normal termination of Gaussian 16 at Wed Oct  4 16:55:32 2023.
 SCF Done:  E(RB3LYP) =  -649.193064863     A.U. after   14 cycles
 Normal termination of Gaussian 16 at Wed Oct  4 16:56:53 2023.
 Gaussian 16:  ES64L-G16RevB.01 20-Dec-2017

                         Standard orientation:
 ---------------------------------------------------------------------
 Center     Atomic      Atomic             Coordinates (Angstroms)
 Number     Number       Type             X           Y           Z
 ---------------------------------------------------------------------
      1         11           0        0.035124   -1.351270   -0.919274
      2         11           0       -1.014948    1.686630   -0.510997
      3         11           0        3.340558    0.169718    0.506927
      4         11           0       -2.360733   -0.505077    0.923343
 ---------------------------------------------------------------------

 SCF Done:  E(RB3LYP) =  -649.191823599     A.U. after   15 cycles

 The electronic state is 1-A.
 Alpha  occ. eigenvalues --  -38.46397 -38.45095 -38.44189 -38.42351  -2.22248
 Alpha  occ. eigenvalues --   -2.20941  -2.20079  -2.18088  -1.15950  -1.15925
 Alpha  occ. eigenvalues --   -1.15847  -1.14655  -1.14625  -1.14524  -1.13756
 Alpha  occ. eigenvalues --   -1.13742  -1.13700  -1.11770  -1.11767  -1.11714
 Alpha  occ. eigenvalues --   -0.16347  -0.10322
 Alpha virt. eigenvalues --   -0.06913  -0.05712  -0.03329  -0.01993  -0.01548
 Alpha virt. eigenvalues --   -0.01291  -0.00382  -0.00161   0.00017   0.00240
 Alpha virt. eigenvalues --    0.00562   0.00853   0.01251   0.01463   0.01533

 Mulliken charges:
               1
     1  Na  -0.200044
     2  Na   0.125995
     3  Na  -0.097090
     4  Na   0.171139
 Sum of Mulliken charges =  -0.00000

 Dipole moment (field-independent basis, Debye):
    X=             -2.3842    Y=              0.5205    Z=             -0.2915  Tot=              2.4577
 Quadrupole moment (field-independent basis, Debye-Ang):
   XX=            -52.3885   YY=            -31.0956   ZZ=            -39.2032
   XY=              2.9366   XZ=              1.3070   YZ=             -1.1865

 Normal termination of Gaussian 16 at Wed Oct  4 16:58:17 2023.
