 Gaussian 16, Revision B.01,

 -------------------------
 #p B3LYP/6-311+g(d) force
 -------------------------

 (Enter /home/sekinelabo/g16/l101.exe)

 Symbolic Z-matrix:
 Charge =  0 Multiplicity = 1

 SCF Done:  E(RB3LYP) =  -649.177161122     A.U. after   16 cycles
 Normal termination of Gaussian 16 at Thu Oct  5 15:46:34 2023.

 -------------------------
 #p B3LYP/6-311+g(d) force
 -------------------------

 (Enter /home/sekinelabo/g16/l101.exe)

 Symbolic Z-matrix:
 Charge =  0 Multiplicity = 1

 SCF Done:  E(RB3LYP) =  -649.157453003     A.U. after   22 cycles
 Normal termination of Gaussian 16 at Thu Oct  5 15:46:37 2023.

 -------------------------
 #p B3LYP/6-311+g(d) force
 -------------------------

 (Enter /home/sekinelabo/g16/l101.exe)

 Symbolic Z-matrix:
 Charge =  0 Multiplicity = 1

 SCF Done:  E(RB3LYP) =  -649.174738263     A.U. after   17 cycles
 Normal termination of Gaussian 16 at Thu Oct  5 15:46:40 2023.

 -------------------------
 #p B3LYP/6-311+g(d) force
 -------------------------

 (Enter /home/sekinelabo/g16/l101.exe)

 Symbolic Z-matrix:
 Charge =  0 Multiplicity = 1

 SCF Done:  E(RB3LYP) =  -649.182486528     A.U. after   14 cycles
 Normal termination of Gaussian 16 at Thu Oct  5 15:46:43 2023.

 -------------------------
 #p B3LYP/6-311+g(d) force
 -------------------------

 (Enter /home/sekinelabo/g16/l101.exe)

 Symbolic Z-matrix:
 Charge =  0 Multiplicity = 1

 SCF Done:  E(RB3LYP) =  -649.167151735     A.U. after   16 cycles

 -------------------------
 #p B3LYP/6-311+g(d) force
 -------------------------

 (Enter /home/sekinelabo/g16/l101.exe)

 Symbolic Z-matrix:
 Charge =  0 Multiplicity = 1

 SCF Done:  E(RB3LYP) =  -649.170065885     A.U. after   15 cycles
 SCF Done:  E(RB3LYP) =  -649.185761786     A.U. after   13 cycles
 Normal termination of Gaussian 16 at Thu Oct  5 15:46:51 2023.
 SCF Done:  E(RB3LYP) =  -649.164930391     A.U. after   18 cycles
 Normal termination of Gaussian 16 at Thu Oct  5 15:46:54 2023.
 SCF Done:  E(RB3LYP) =  -649.195345517     A.U. after   12 cycles
 Normal termination of Gaussian 16 at Thu Oct  5 15:46:56 2023.
 Gaussian 16:  ES64L-G16RevB.01 20-Dec-2017

                         Standard orientation:
 ---------------------------------------------------------------------
 Center     Atomic      Atomic             Coordinates (Angstroms)
 Number     Number       Type             X           Y           Z
 ---------------------------------------------------------------------
      1         11           0       -0.699439   -0.386220    0.835602
      2         11           0        1.871780    1.262231   -0.003236
      3         11           0       -2.653377    0.322985   -0.440999
      4         11           0        1.481036   -1.198996   -0.391366
 ---------------------------------------------------------------------

 SCF Done:  E(RB3LYP) =  -649.164595651     A.U. after   13 cycles

 The electronic state is 1-A.
 Alpha  occ. eigenvalues --  -38.46001 -38.45285 -38.44939 -38.43314  -2.22049
 Alpha  occ. eigenvalues --   -2.21241  -2.21091  -2.19245  -1.16107  -1.15875
 Alpha  occ. eigenvalues --   -1.15579  -1.15072  -1.14856  -1.14823  -1.14782
 Alpha  occ. eigenvalues --   -1.14661  -1.14609  -1.12896  -1.12809  -1.12805
 Alpha  occ. eigenvalues --   -0.17503  -0.11264
 Alpha virt. eigenvalues --   -0.06542  -0.05277  -0.03583  -0.01910  -0.01324
 Alpha virt. eigenvalues --   -0.00920  -0.00058   0.00206   0.00299   0.00497
 Alpha virt. eigenvalues --    0.00677   0.00997   0.01531   0.01680   0.01779

 Mulliken charges:
               1
     1  Na  -0.541877
     2  Na   0.116825
     3  Na   0.156924
     4  Na   0.268129
 Sum of Mulliken charges =   0.00000

 Dipole moment (field-independent basis, Debye):
    X=              1.2264    Y=              0.2030    Z=             -0.3365  Tot=              1.2878
 Quadrupole moment (field-independent basis, Debye-Ang):
   XX=            -50.3186   YY=            -32.9889   ZZ=            -39.6635
   XY=             -0.5371   XZ=              1.4638   YZ=              0.3653

 Normal termination of Gaussian 16 at Thu Oct  5 15:46:59 2023.
