 Gaussian 16, Revision B.01,

 -------------------------
 #p B3LYP/6-311+g(d) force
 -------------------------

 (Enter /home/sekinelabo/g16/l101.exe)

 Symbolic Z-matrix:
 Charge =  0 Multiplicity = 1

 SCF Done:  E(RB3LYP) =  -649.191538555     A.U. after   13 cycles
 Normal termination of Gaussian 16 at Wed Oct  4 14:13:24 2023.

 -------------------------
 #p B3LYP/6-311+g(d) force
 -------------------------

 (Enter /home/sekinelabo/g16/l101.exe)

 Symbolic Z-matrix:
 Charge =  0 Multiplicity = 1

 SCF Done:  E(RB3LYP) =  -649.176671513     A.U. after   17 cycles
 Normal termination of Gaussian 16 at Wed Oct  4 14:15:52 2023.

 -------------------------
 #p B3LYP/6-311+g(d) force
 -------------------------

 (Enter /home/sekinelabo/g16/l101.exe)

 Symbolic Z-matrix:
 Charge =  0 Multiplicity = 1

 SCF Done:  E(RB3LYP) =  -649.156842852     A.U. after   16 cycles
 Normal termination of Gaussian 16 at Wed Oct  4 14:18:09 2023.

 -------------------------
 #p B3LYP/6-311+g(d) force
 -------------------------

 (Enter /home/sekinelabo/g16/l101.exe)

 Symbolic Z-matrix:
 Charge =  0 Multiplicity = 1

 SCF Done:  E(RB3LYP) =  -649.182703968     A.U. after   12 cycles
 Normal termination of Gaussian 16 at Wed Oct  4 14:20:05 2023.

 -------------------------
 #p B3LYP/6-311+g(d) force
 -------------------------

 (Enter /home/sekinelabo/g16/l101.exe)

 Symbolic Z-matrix:
 Charge =  0 Multiplicity = 1

 SCF Done:  E(RB3LYP) =  -649.180327325     A.U. after   15 cycles

 -------------------------
 #p B3LYP/6-311+g(d) force
 -------------------------

 (Enter /home/sekinelabo/g16/l101.exe)

 Symbolic Z-matrix:
 Charge =  0 Multiplicity = 1

 SCF Done:  E(RB3LYP) =  -649.152584203     A.U. after   12 cycles
 SCF Done:  E(RB3LYP) =  -649.162733696     A.U. after   21 cycles
 SCF Done:  E(RB3LYP) =  -649.184308451     A.U. after   12 cycles
 SCF Done:  E(RB3LYP) =  -649.165467449     A.U. after   17 cycles
 SCF Done:  E(RB3LYP) =  -649.188931756     A.U. after   12 cycles
 SCF Done:  E(RB3LYP) =  -649.163960107     A.U. after   14 cycles
 SCF Done:  E(RB3LYP) =  -649.155436900     A.U. after   18 cycles
 SCF Done:  E(RB3LYP) =  -649.189520071     A.U. after   13 cycles
 SCF Done:  E(RB3LYP) =  -649.169292370     A.U. after   18 cycles
 SCF Done:  E(RB3LYP) =  -649.175362871     A.U. after   15 cycles
 SCF Done:  E(RB3LYP) =  -649.176387428     A.U. after   19 cycles
 SCF Done:  E(RB3LYP) =  -649.193125990     A.U. after   14 cycles
 Normal termination of Gaussian 16 at Wed Oct  4 16:54:43 2023.
 SCF Done:  E(RB3LYP) =  -649.193552961     A.U. after   11 cycles
 Normal termination of Gaussian 16 at Wed Oct  4 16:55:54 2023.
 SCF Done:  E(RB3LYP) =  -649.182876908     A.U. after   11 cycles
 Normal termination of Gaussian 16 at Wed Oct  4 16:57:04 2023.
 Gaussian 16:  ES64L-G16RevB.01 20-Dec-2017

                         Standard orientation:
 ---------------------------------------------------------------------
 Center     Atomic      Atomic             Coordinates (Angstroms)
 Number     Number       Type             X           Y           Z
 ---------------------------------------------------------------------
      1         11           0       -1.467977    1.990404   -0.191836
      2         11           0       -2.563533   -1.800507   -0.131660
      3         11           0       -0.163302    0.205871    0.453438
      4         11           0        4.194813   -0.395768   -0.129941
 ---------------------------------------------------------------------

 SCF Done:  E(RB3LYP) =  -649.160166894     A.U. after   17 cycles

 The electronic state is 1-A.
 Alpha  occ. eigenvalues --  -38.48412 -38.45780 -38.44877 -38.43912  -2.24334
 Alpha  occ. eigenvalues --   -2.21787  -2.20667  -2.19617  -1.18619  -1.17888
 Alpha  occ. eigenvalues --   -1.17799  -1.15446  -1.15350  -1.15233  -1.14365
 Alpha  occ. eigenvalues --   -1.14330  -1.14283  -1.13297  -1.13293  -1.13254
 Alpha  occ. eigenvalues --   -0.16256  -0.10432
 Alpha virt. eigenvalues --   -0.08119  -0.04917  -0.04006  -0.02938  -0.01475
 Alpha virt. eigenvalues --   -0.01038  -0.00710  -0.00507  -0.00192   0.00185
 Alpha virt. eigenvalues --    0.00681   0.00744   0.00843   0.01182   0.01429

 Mulliken charges:
               1
     1  Na   0.376511
     2  Na   0.152424
     3  Na  -0.567035
     4  Na   0.038100
 Sum of Mulliken charges =  -0.00000

 Dipole moment (field-independent basis, Debye):
    X=             -2.9509    Y=              0.5635    Z=             -0.3224  Tot=              3.0215
 Quadrupole moment (field-independent basis, Debye-Ang):
   XX=            -44.9961   YY=            -33.1641   ZZ=            -43.5569
   XY=             -5.5977   XZ=              0.5868   YZ=             -1.2195

 Normal termination of Gaussian 16 at Wed Oct  4 16:58:33 2023.
