 Gaussian 16, Revision B.01,

 -------------------------
 #p B3LYP/6-311+g(d) force
 -------------------------

 (Enter /home/sekinelabo/g16/l101.exe)

 Symbolic Z-matrix:
 Charge =  0 Multiplicity = 1

 SCF Done:  E(RB3LYP) =  -649.183789633     A.U. after   12 cycles
 Normal termination of Gaussian 16 at Wed Oct  4 14:13:20 2023.

 -------------------------
 #p B3LYP/6-311+g(d) force
 -------------------------

 99//99;
 Leave Link    1 at Wed Oct  4 14:13:20 2023, MaxMem=  1610612736 cpu:

 Symbolic Z-matrix:
 Charge =  0 Multiplicity = 1
 Na                    0.

 Symbolic Z-matrix:
 Charge =  0 Multiplicity = 1

 SCF Done:  E(RB3LYP) =  -649.184135778     A.U. after   12 cycles
 Normal termination of Gaussian 16 at Wed Oct  4 14:15:18 2023.

 -------------------------
 #p B3LYP/6-311+g(d) force
 -------------------------

 (Enter /home/sekinelabo/g16/l101.exe)

 Symbolic Z-matrix:
 Charge =  0 Multiplicity = 1

 SCF Done:  E(RB3LYP) =  -649.158713540     A.U. after   25 cycles
 Normal termination of Gaussian 16 at Wed Oct  4 14:18:23 2023.

 -------------------------
 #p B3LYP/6-311+g(d) force
 -------------------------

 (Enter /home/sekinelabo/g16/l101.exe)

 Symbolic Z-matrix:
 Charge =  0 Multiplicity = 1

 SCF Done:  E(RB3LYP) =  -649.177676335     A.U. after   13 cycles
 Normal termination of Gaussian 16 at Wed Oct  4 14:20:27 2023.

 -------------------------
 #p B3LYP/6-311+g(d) force
 -------------------------

 (Enter /home/sekinelabo/g16/l101.exe)

 Symbolic Z-matrix:
 Charge =  0 Multiplicity = 1

 SCF Done:  E(RB3LYP) =  -649.171217848     A.U. after   15 cycles

 -------------------------
 #p B3LYP/6-311+g(d) force
 -------------------------

 SCF Done:  E(RB3LYP) =  -649.151688112     A.U. after   22 cycles
 SCF Done:  E(RB3LYP) =  -649.151688112     A.U. after   22 cycles
 SCF Done:  E(RB3LYP) =  -649.188449661     A.U. after   12 cycles
 SCF Done:  E(RB3LYP) =  -649.117292749     A.U. after   15 cycles
 SCF Done:  E(RB3LYP) =  -649.173351904     A.U. after   17 cycles
 SCF Done:  E(RB3LYP) =  -649.195530418     A.U. after   12 cycles
 SCF Done:  E(RB3LYP) =  -649.195530418     A.U. after   12 cycles
 SCF Done:  E(RB3LYP) =  -649.176760324     A.U. after   17 cycles
 SCF Done:  E(RB3LYP) =  -649.176760324     A.U. after   17 cycles
 SCF Done:  E(RB3LYP) =  -649.190650213     A.U. after   12 cycles
 SCF Done:  E(RB3LYP) =  -649.190650213     A.U. after   12 cycles
 Normal termination of Gaussian 16 at Wed Oct  4 15:13:17 2023.
 SCF Done:  E(RB3LYP) =  -649.174624251     A.U. after   12 cycles
 SCF Done:  E(RB3LYP) =  -649.174624251     A.U. after   12 cycles
 Normal termination of Gaussian 16 at Wed Oct  4 15:15:14 2023.

                         Standard orientation:
 ---------------------------------------------------------------------
 Center     Atomic      Atomic             Coordinates (Angstroms)
 Number     Number       Type             X           Y           Z
 ---------------------------------------------------------------------
      1         11           0        3.757521    0.412295    0.165016
      2         11           0       -1.546189    2.511814   -0.261669
      3         11           0       -1.856946   -0.864040    0.659132
      4         11           Leave Link  303 at Wed Oct  4 15:15:17 2023, MaxMem=  1610612736 cpu:               3.0 elap:               1.6
 (Enter /home/sekinelabo/g16/l401.exe)
 ExpMin= 7.60D-03 ExpMax= 3.62D+04 ExpMxC= 1.21D+03 IAcc=3 IRadAn=         5 AccDes= 0.00D+00
 Harris functional with IExCor=  402 and IRadAn=       5 diagonalized for initial guess.
 HarFok:  IExCor=  402 AccDes= 0.00D+00 IRadAn=         5 IDoV= 1 UseB2=F ITyADJ=14
 ICtDFT=  3500011 ScaDFX=  1.000000  1.000000  1.000000  1.000000
 FoFCou: FMM=F IPFlag=           0 FMFlag=      100000 FMFlg1=           0
         NFxFlg=           0 DoJE=T BraDBF=F KetDBF=T FulRan=T
         wScrn=  0.000000 ICntrl=       500 IOpCl=  0 I1Cent=   200000004 NGrid=           0
         NMat0=    1 NMatS0=      1 NMatT0=    0 NMatD0=    1 NMtDS0=    0 NMtDT0=    0
 Petite list used in FoFCou.
 Harris En= -649.024314501838
 JPrj=0 DoOrth=F DoCkMO=F.
 Leave Link  401 at Wed Oct  4 15:15:26 2023, MaxMem=  1610612736 cpu:              14.9 elap:               8.3
 (Enter /home/sekinelabo/g16/l502.exe)
 Keep R1 ints in memory in canonical form, NReq=41581762.
 FoFCou: FMM=F IPFlag=           0 FMFlag=           0 FMFlg1=           0
         NFxFlg=           0 DoJE=F BraDBF=F KetDBF=F FulRan=T
         wScrn=  0.000000 ICntrl=       600 IOpCl=  0 I1Cent=           0 NGrid=           0
         NMat0=    1 NMatS0=   7260 NMatT0=    0 NMatD0=    1 NMtDS0=    0 NMtDT0=    0
 Symmetry not used in FoFCou.
 Two-electron integral symmetry not used.
 Closed shell SCF:
 Using DIIS extrapolation, IDIIS=  1040.
 NGot=  1610612736 LenX=  1584221380 LenY=  1584205563
 Requested convergence on RMS density matrix=1.00D-08 within 128 cycles.
 Requested convergence on MAX density matrix=1.00D-06.
 Requested convergence on             energy=1.00D-06.
 No special actions if energy rises.

 Cycle   1  Pass 1  IDiag  1:
 E= -649.127603835283
 DIIS: error= 9.89D-03 at cycle   1 NSaved=   1.
 NSaved= 1 IEnMin= 1 EnMin= -649.127603835283     IErMin= 1 ErrMin= 9.89D-03
 ErrMax= 9.89D-03  0.00D+00 EMaxC= 1.00D-01 BMatC= 2.83D-02 BMatP= 2.83D-02
 IDIUse=3 WtCom= 9.01D-01 WtEn= 9.89D-02
 Coeff-Com:  0.100D+01
 Coeff-En:   0.100D+01
 Coeff:      0.100D+01
 Gap=    -0.008 Goal=   None    Shift=    0.000
 GapD=   -0.008 DampG=0.250 DampE=1.000 DampFc=0.2500 IDamp=-1.
 Damping current iteration by 2.50D-01
 RMSDP=9.00D-03 MaxDP=3.71D-01              OVMax= 7.90D-01

 Cycle   2  Pass 1  IDiag  1:
 E= -649.136632837302     Delta-E=       -0.009029002020 Rises=F Damp=T
 DIIS: error= 6.81D-03 at cycle   2 NSaved=   2.
 NSaved= 2 IEnMin= 2 EnMin= -649.136632837302     IErMin= 2 ErrMin= 6.81D-03
 ErrMax= 6.81D-03  0.00D+00 EMaxC= 1.00D-01 BMatC= 1.02D-02 BMatP= 2.83D-02
 IDIUse=3 WtCom= 9.32D-01 WtEn= 6.81D-02
 Coeff-Com: -0.980D+00 0.198D+01
 Coeff-En:   0.384D-01 0.962D+00
 Coeff:     -0.911D+00 0.191D+01
 Gap=    -0.012 Goal=   None    Shift=    0.000
 RMSDP=6.00D-03 MaxDP=3.08D-01 DE=-9.03D-03 OVMax= 8.56D-01

 Cycle   3  Pass 1  IDiag  1:
 E= -649.063364348874     Delta-E=        0.073268488428 Rises=F Damp=F
 DIIS: error= 9.17D-03 at cycle   3 NSaved=   3.
 NSaved= 3 IEnMin= 2 EnMin= -649.136632837302     IErMin= 2 ErrMin= 6.81D-03
 ErrMax= 9.17D-03  0.00D+00 EMaxC= 1.00D-01 BMatC= 8.49D-03 BMatP= 1.02D-02
 IDIUse=3 WtCom= 9.08D-01 WtEn= 9.17D-02
 Rare condition: small coef for last iteration:  0.000D+00
 Coeff-Com: -0.700D+00 0.131D+01 0.394D+00
 Coeff-En:   0.000D+00 0.000D+00 0.100D+01
 Coeff:     -0.700D+00 0.131D+01 0.394D+00
 Gap=     0.000 Goal=   None    Shift=    0.000
 RMSDP=9.18D-03 MaxDP=5.64D-01 DE= 7.33D-02 OVMax= 9.14D-01

 Cycle   4  Pass 1  IDiag  1:
 E= -649.087852626545     Delta-E=       -0.024488277671 Rises=F Damp=F
 DIIS: error= 6.82D-03 at cycle   4 NSaved=   4.
 NSaved= 4 IEnMin= 2 EnMin= -649.136632837302     IErMin= 2 ErrMin= 6.81D-03
 ErrMax= 6.82D-03  0.00D+00 EMaxC= 1.00D-01 BMatC= 4.57D-03 BMatP= 8.49D-03
 IDIUse=3 WtCom= 9.32D-01 WtEn= 6.82D-02
 EnCoef did    38 forward-backward iterations
 Coeff-Com: -0.249D+00 0.512D+00 0.357D+00 0.380D+00
 Coeff-En:   0.398D+00 0.000D+00 0.192D+00 0.409D+00
 Coeff:     -0.205D+00 0.477D+00 0.346D+00 0.382D+00
 Gap=     0.001 Goal=   None    Shift=    0.000
 RMSDP=6.94D-03 MaxDP=3.32D-01 DE=-2.45D-02 OVMax= 7.25D-01

 Cycle   5  Pass 1  IDiag  1:
 E= -649.134445960403     Delta-E=       -0.046593333858 Rises=F Damp=F
 DIIS: error= 4.39D-03 at cycle   5 NSaved=   5.
 NSaved= 5 IEnMin= 2 EnMin= -649.136632837302     IErMin= 5 ErrMin= 4.39D-03
 ErrMax= 4.39D-03  0.00D+00 EMaxC= 1.00D-01 BMatC= 1.69D-03 BMatP= 4.57D-03
 IDIUse=3 WtCom= 9.56D-01 WtEn= 4.39D-02
 Coeff-Com: -0.203D+00 0.338D+00-0.739D-01 0.222D+00 0.717D+00
 Coeff-En:   0.000D+00 0.000D+00 0.000D+00 0.301D+00 0.699D+00
 Coeff:     -0.194D+00 0.323D+00-0.707D-01 0.226D+00 0.716D+00
 Gap=     0.014 Goal=   None    Shift=    0.000
 RMSDP=1.83D-03 MaxDP=1.04D-01 DE=-4.66D-02 OVMax= 1.76D-01

 Cycle   6  Pass 1  IDiag  1:
 E= -649.148829749658     Delta-E=       -0.014383789255 Rises=F Damp=F
 DIIS: error= 1.73D-03 at cycle   6 NSaved=   6.
 NSaved= 6 IEnMin= 6 EnMin= -649.148829749658     IErMin= 6 ErrMin= 1.73D-03
 ErrMax= 1.73D-03  0.00D+00 EMaxC= 1.00D-01 BMatC= 2.52D-04 BMatP= 1.69D-03
 IDIUse=3 WtCom= 9.83D-01 WtEn= 1.73D-02
 Coeff-Com: -0.107D+00 0.153D+00-0.469D-01 0.946D-01 0.121D-01 0.894D+00
 Coeff-En:   0.000D+00 0.000D+00 0.000D+00 0.476D-01 0.000D+00 0.952D+00
 Coeff:     -0.105D+00 0.150D+00-0.461D-01 0.938D-01 0.119D-01 0.895D+00
 Gap=     0.019 Goal=   None    Shift=    0.000
 RMSDP=5.91D-04 MaxDP=2.87D-02 DE=-1.44D-02 OVMax= 4.73D-02

 Cycle   7  Pass 1  IDiag  1:
 E= -649.146564401572     Delta-E=        0.002265348086 Rises=F Damp=F
 DIIS: error= 1.96D-03 at cycle   7 NSaved=   7.
 NSaved= 7 IEnMin= 6 EnMin= -649.148829749658     IErMin= 6 ErrMin= 1.73D-03
 ErrMax= 1.96D-03  0.00D+00 EMaxC= 1.00D-01 BMatC= 4.65D-04 BMatP= 2.52D-04
 IDIUse=3 WtCom= 9.83D-01 WtEn= 1.73D-02
 Rare condition: small coef for last iteration:  0.000D+00
 Coeff-Com: -0.892D-01 0.125D+00-0.682D-02 0.746D-01-0.317D+00 0.621D+00
 Coeff-Com:  0.592D+00
 Coeff-En:   0.000D+00 0.000D+00 0.000D+00 0.127D+00 0.000D+00 0.000D+00
 Coeff-En:   0.873D+00
 Coeff:     -0.892D-01 0.125D+00-0.682D-02 0.746D-01-0.317D+00 0.621D+00
 Coeff:      0.592D+00
 Gap=     0.019 Goal=   None    Shift=    0.000
 RMSDP=3.71D-04 MaxDP=1.75D-02 DE= 2.27D-03 OVMax= 2.81D-02

 Cycle   8  Pass 1  IDiag  1:
 E= -649.148180980398     Delta-E=       -0.001616578826 Rises=F Damp=F
 DIIS: error= 1.79D-03 at cycle   8 NSaved=   8.
 NSaved= 8 IEnMin= 6 EnMin= -649.148829749658     IErMin= 6 ErrMin= 1.73D-03
 ErrMax= 1.79D-03  0.00D+00 EMaxC= 1.00D-01 BMatC= 2.63D-04 BMatP= 2.52D-04
 IDIUse=3 WtCom= 9.83D-01 WtEn= 1.73D-02
 EnCoef did   100 forward-backward iterations
 Coeff-Com: -0.542D-01 0.764D-01 0.177D-01 0.662D-01-0.428D+00 0.203D+00
 Coeff-Com:  0.236D+00 0.883D+00
 Coeff-En:   0.000D+00 0.000D+00 0.000D+00 0.478D-01 0.000D+00 0.944D+00
 Coeff-En:   0.000D+00 0.846D-02
 Coeff:     -0.533D-01 0.751D-01 0.174D-01 0.658D-01-0.421D+00 0.216D+00
 Coeff:      0.232D+00 0.868D+00
 Gap=     0.019 Goal=   None    Shift=    0.000
 RMSDP=3.88D-04 MaxDP=1.98D-02 DE=-1.62D-03 OVMax= 4.13D-02

 Cycle   9  Pass 1  IDiag  1:
 E= -649.149750372482     Delta-E=       -0.001569392084 Rises=F Damp=F
 DIIS: error= 9.74D-04 at cycle   9 NSaved=   9.
 NSaved= 9 IEnMin= 9 EnMin= -649.149750372482     IErMin= 9 ErrMin= 9.74D-04
 ErrMax= 9.74D-04  0.00D+00 EMaxC= 1.00D-01 BMatC= 9.09D-05 BMatP= 2.52D-04
 IDIUse=3 WtCom= 9.90D-01 WtEn= 9.74D-03
 Coeff-Com: -0.103D-01 0.138D-01 0.241D-01 0.295D-01-0.215D+00-0.734D-01
 Coeff-Com: -0.213D+00 0.127D+00 0.132D+01
 Coeff-En:   0.000D+00 0.000D+00 0.000D+00 0.000D+00 0.000D+00 0.000D+00
 Coeff-En:   0.000D+00 0.000D+00 0.100D+01
 Coeff:     -0.102D-01 0.137D-01 0.238D-01 0.293D-01-0.213D+00-0.727D-01
 Coeff:     -0.211D+00 0.126D+00 0.131D+01
 Gap=     0.019 Goal=   None    Shift=    0.000
 RMSDP=3.26D-04 MaxDP=1.78D-02 DE=-1.57D-03 OVMax= 3.33D-02

 Cycle  10  Pass 1  IDiag  1:
 E= -649.150412258949     Delta-E=       -0.000661886467 Rises=F Damp=F
 DIIS: error= 3.56D-04 at cycle  10 NSaved=  10.
 NSaved=10 IEnMin=10 EnMin= -649.150412258949     IErMin=10 ErrMin= 3.56D-04
 ErrMax= 3.56D-04  0.00D+00 EMaxC= 1.00D-01 BMatC= 1.16D-05 BMatP= 9.09D-05
 IDIUse=3 WtCom= 9.96D-01 WtEn= 3.56D-03
 Coeff-Com: -0.140D-02 0.164D-02 0.866D-02 0.102D-01-0.462D-01-0.330D-01
 Coeff-Com: -0.108D+00-0.156D+00 0.437D+00 0.887D+00
 Coeff-En:   0.000D+00 0.000D+00 0.000D+00 0.000D+00 0.000D+00 0.000D+00
 Coeff-En:   0.000D+00 0.000D+00 0.000D+00 0.100D+01
 Coeff:     -0.140D-02 0.163D-02 0.863D- DIIS: error= 1.79D-03 at cycle   8 NSaved=   8.
 NSaved= 8 IEnMin= 6 EnMin= -649.1488 Gap=     0.019 Goal=   None    Shift=    0.000
 RMSDP=1.23D-04 MaxDP=6.55D-03 DE=-6.62D-04 OVMax= 1.20D-02

 Cycle  11  Pass 1  IDiag  1:
 E= -649.150497876476     Delta-E=       -0.000085617527 Rises=F Damp=F
 DIIS: error= 1.31D-04 at cycle  11 NSaved=  11.
 NSaved=11 IEnMin=11 EnMin= -649.150497876476     IErMin=11 ErrMin= 1.31D-04
 ErrMax= 1.31D-04  0.00D+00 EMaxC= 1.00D-01 BMatC= 1.41D-06 BMatP= 1.16D-05
 IDIUse=3 WtCom= 9.99D-01 WtEn= 1.31D-03
 Coeff-Com:  0.102D-02-0.139D-02 0.543D-03 0.144D-02 0.405D-02 0.179D-02
 Coeff-Com:  0.236D-02-0.781D-01-0.586D-01 0.120D+00 0.101D+01
 Coeff-En:   0.000D+00 0.000D+00 0.000D+00 0.000D+00 0.000D+00 0.000D+00
 Coeff-En:   0.000D+00 0.000D+00 0.000D+00 0.000D+00 0.100D+01
 Coeff:      0.101D-02-0.139D-02 0.543D-03 0.144D-02 0.404D-02 0.179D-02
 Coeff:      0.235D-02-0.780D-01-0.585D-01 0.119D+00 0.101D+01
 Gap=     0.019 Goal=   None    Shift=    0.000
 RMSDP=5.26D-05 MaxDP=2.96D-03 DE=-8.56D-05 OVMax= 5.09D-03

 Cycle  12  Pass 1  IDiag  1:
 E= -649.150509406725     Delta-E=       -0.000011530249 Rises=F Damp=F
 DIIS: error= 2.32D-05 at cycle  12 NSaved=  12.
 NSaved=12 IEnMin=12 EnMin= -649.150509406725     IErMin=12 ErrMin= 2.32D-05
 ErrMax= 2.32D-05  0.00D+00 EMaxC= 1.00D-01 BMatC= 5.19D-08 BMatP= 1.41D-06
 IDIUse=1 WtCom= 1.00D+00 WtEn= 0.00D+00
 Coeff-Com:  0.117D-03-0.174D-03-0.103D-03 0.597D-03 0.795D-03 0.206D-02
 Coeff-Com:  0.274D-02-0.183D-01-0.121D-01-0.241D-01 0.187D+00 0.861D+00
 Coeff:      0.117D-03-0.174D-03-0.103D-03 0.597D-03 0.795D-03 0.206D-02
 Coeff:      0.274D-02-0.183D-01-0.121D-01-0.241D-01 0.187D+00 0.861D+00
 Gap=     0.019 Goal=   None    Shift=    0.000
 RMSDP=5.54D-06 MaxDP=1.10D-04 DE=-1.15D-05 OVMax= 3.92D-04

 Cycle  13  Pass 1  IDiag  1:
 E= -649.150509316092     Delta-E=        0.000000090633 Rises=F Damp=F
 DIIS: error= 2.50D-05 at cycle  13 NSaved=  13.
 NSaved=13 IEnMin=12 EnMin= -649.150509406725     IErMin=12 ErrMin= 2.32D-05
 ErrMax= 2.50D-05  0.00D+00 EMaxC= 1.00D-01 BMatC= 5.43D-08 BMatP= 5.19D-08
 IDIUse=1 WtCom= 1.00D+00 WtEn= 0.00D+00
 Coeff-Com:  0.102D-03-0.141D-03 0.444D-04 0.114D-04-0.447D-03-0.289D-02
 Coeff-Com: -0.376D-02 0.873D-02 0.105D-01-0.505D-01-0.186D+00 0.277D+00
 Coeff-Com:  0.948D+00
 Coeff:      0.102D-03-0.141D-03 0.444D-04 0.114D-04-0.447D-03-0.289D-02
 Coeff:     -0.376D-02 0.873D-02 0.105D-01-0.505D-01-0.186D+00 0.277D+00
 Coeff:      0.948D+00
 Gap=     0.019 Goal=   None    Shift=    0.000
 RMSDP=1.30D-05 MaxDP=7.22D-04 DE= 9.06D-08 OVMax= 1.22D-03

 Cycle  14  Pass 1  IDiag  1:
 E= -649.150509781633     Delta-E=       -0.000000465541 Rises=F Damp=F
 DIIS: error= 4.59D-07 at cycle  14 NSaved=  14.
 NSaved=14 IEnMin=14 EnMin= -649.150509781633     IErMin=14 ErrMin= 4.59D-07
 ErrMax= 4.59D-07  0.00D+00 EMaxC= 1.00D-01 BMatC= 1.91D-11 BMatP= 5.19D-08
 IDIUse=1 WtCom= 1.00D+00 WtEn= 0.00D+00
 Coeff-Com: -0.302D-04 0.411D-04 0.264D-04 0.328D-04-0.285D-03-0.356D-04
 Coeff-Com:  0.142D-03-0.279D-03 0.176D-02 0.534D-02-0.329D-02-0.391D-01
 Coeff-Com: -0.267D-01 0.106D+01
 Coeff:     -0.302D-04 0.411D-04 0.264D-04 0.328D-04-0.285D-03-0.356D-04
 Coeff:      0.142D-03-0.279D-03 0.176D-02 0.534D-02-0.329D-02-0.391D-01
 Coeff:     -0.267D-01 0.106D+01
 Gap=     0.019 Goal=   None    Shift=    0.000
 RMSDP=7.79D-07 MaxDP=2.87D-05 DE=-4.66D-07 OVMax= 7.74D-05

 Cycle  15  Pass 1  IDiag  1:
 E= -649.150509781276     Delta-E=        0.000000000357 Rises=F Damp=F
 DIIS: error= 8.79D-07 at cycle  15 NSaved=  15.
 NSaved=15 IEnMin=14 EnMin= -649.150509781633     IErMin=14 ErrMin= 4.59D-07
 ErrMax= 8.79D-07  0.00D+00 EMaxC= 1.00D-01 BMatC= 7.47D-11 BMatP= 1.91D-11
 IDIUse=1 WtCom= 1.00D+00 WtEn= 0.00D+00
 Coeff-Com: -0.925D-06 0.140D-05 0.525D-05 0.781D-05-0.428D-04 0.253D-04
 Coeff-Com:  0.850D-04-0.193D-03-0.493D-04 0.127D-02 0.336D-02-0.169D-01
 Coeff-Com: -0.383D-01 0.141D+00 0.910D+00
 Coeff:     -0.925D-06 0.140D-05 0.525D-05 0.781D-05-0.428D-04 0.253D-04
 Coeff:      0.850D-04-0.193D-03-0.493D-04 0.127D-02 0.336D-02-0.169D-01
 Coeff:     -0.383D-01 0.141D+00 0.910D+00
 Gap=     0.019 Goal=   None    Shift=    0.000
 RMSDP=4.06D-07 MaxDP=2.21D-05 DE= 3.57D-10 OVMax= 3.63D-05

 Cycle  16  Pass 1  IDiag  1:
 E= -649.150509781876     Delta-E=       -0.000000000600 Rises=F Damp=F
 DIIS: error= 1.58D-07 at cycle  16 NSaved=  16.
 NSaved=16 IEnMin=16 EnMin= -649.150509781876     IErMin=16 ErrMin= 1.58D-07
 ErrMax= 1.58D-07  0.00D+00 EMaxC= 1.00D-01 BMatC= 2.00D-12 BMatP= 1.91D-11
 IDIUse=1 WtCom= 1.00D+00 WtEn= 0.00D+00
 Coeff-Com:  0.108D-05-0.142D-05 0.369D-06 0.150D-05 0.418D-05 0.991D-05
 Coeff-Com:  0.180D-04-0.738D-04-0.147D-03 0.165D-03 0.147D-02-0.571D-03
 Coeff-Com: -0.134D-01-0.272D-01 0.192D+00 0.848D+00
 Coeff:      0.108D-05-0.142D-05 0.369D-06 0.150D-05 0.418D-05 0.991D-05
 Coeff:      0.180D-04-0.738D-04-0.147D-03 0.165D-03 0.147D-02-0.571D-03
 Coeff:     -0.134D-01-0.272D-01 0.192D+00 0.848D+00
 Gap=     0.019 Goal=   None    Shift=    0.000
 RMSDP=7.07D-08 MaxDP=3.40D-06 DE=-6.00D-10 OVMax= 6.48D-06

 Cycle  17  Pass 1  IDiag  1:
 E= -649.150509781889     Delta-E=       -0.000000000014 Rises=F Damp=F
 DIIS: error= 2.09D-08 at cycle  17 NSaved=  17.
 NSaved=17 IEnMin=17 EnMin= -649.150509781889     IErMin=17 ErrMin= 2.09D-08
 ErrMax= 2.09D-08  0.00D+00 EMaxC= 1.00D-01 BMatC= 2.98D-14 BMatP= 2.00D-12
 IDIUse=1 WtCom= 1.00D+00 WtEn= 0.00D+00
 Coeff-Com:  0.359D-07-0.376D-07 0.173D-06 0.587D-06-0.204D-06 0.872D-06
 Coeff-Com: -0.481D-05-0.481D-05-0.189D-04-0.306D-04 0.136D-03 0.927D-03
 Coeff-Com: -0.118D-02-0.880D-02-0.171D-02 0.187D+00 0.824D+00
 Coeff:      0.359D-07-0.376D-07 0.173D-06 0.587D-06-0.204D-06 0.872D-06
 Coeff:     -0.481D-05-0.481D-05-0.189D-04-0.306D-04 0.136D-03 0.927D-03
 Coeff:     -0.118D-02-0.880D-02-0.171D-02 0.187D+00 0.824D+00
 Gap=     0.019 Goal=   None    Shift=    0.000
 RMSDP=7.86D-09 MaxDP=1.98D-07 DE=-1.36D-11 OVMax= 3.36D-07

 SCF Done:  E(RB3LYP) =  -649.150509782     A.U. after   17 cycles
            NFock= 17  Conv=0.79D-08     -V/T= 2.0027
 KE= 6.474063989080D+02 PE=-1.749440581144D+03 EE= 3.575311441787D+02
 Leave Link  502 at Wed Oct  4 15:17:10 2023, MaxMem=  1610612736 cpu:             183.8 elap:             104.0
 (Enter /home/sekinelabo/g16/l601.exe)
 Copying SCF densities to generalized density rwf, IOpCl= 0 IROHF=0.

 **********************************************************************

            Population analysis using the SCF Density.

 **********************************************************************

 Orbital symmetries:
       Occupied  (A) (A) (A) (A) (A) (A) (A) (A) (A) (A) (A) (A)
                 (A) (A) (A) (A) (A) (A) (A) (A) (A) (A)
       Virtual   (A) (A) (A) (A) (A) (A) (A) (A) (A) (A) (A) (A)
                 (A) (A) (A) (A) (A) (A) (A) (A) (A) (A) (A) (A)
                 (A) (A) (A) (A) (A) (A) (A) (A) (A) (A) (A) (A)
                 (A) (A) (A) (A) (A) (A) (A) (A) (A) (A) (A) (A)
                 (A) (A) (A) (A) (A) (A) (A) (A) (A) (A) (A) (A)
                 (A) (A) (A) (A) (A) (A) (A) (A) (A) (A) (A) (A)
                 (A) (A) (A) (A) (A) (A) (A) (A) (A) (A) (A) (A)
          RMSDP=7.07D-08 MaxDP=3.40D-06 DE=-6.05D-10 OVMax= 6.48D-06

 Cycle  17  Pass 1  IDiag  1:
 E= -649.150509781888     Delta-E=       -0.000000000009 Rises=F Damp=F
 DIIS: error= 2.09D-08 at cycle  17 NSaved=  17.
 NSaved=17 IEnMin=17 EnMin= -649.150509781888     IErMin=17 ErrMin= 2.09D-08
 ErrMax= 2.09D-08  0.00D+00 EMaxC= 1.00D-01 BMatC= 2.98D-14 BMatP= 2.00D-12
 IDIUse=1 WtCom= 1.00D+00 WtEn= 0.00D+00
 Coeff-Com:  0.359D-07-0.376D-07 0.173D-06 0.587D-06-0.204D-06 0.872D-06
 Coeff-Com: -0.481D-05-0.481D-05-0.189D-04-0.306D-04 0.136D-03 0.927D-03
 Coeff-Com: -0.118D-02-0.880D-02-0.171D-02 0.187D+00 0.824D+00
 Coeff:      0.359D-07-0.376D-07 0.173D-06 0.587D-06-0.204D-06 0.872D-06
 Coeff:     -0.481D-05-0.481D-05-0.189D-04-0.306D-04 0.136D-03 0.927D-03
 Coeff:     -0.118D-02-0.880D-02-0.171D-02 0.187D+00 0.824D+00
 Gap=     0.019 Goal=   None    Shift=    0.000
 RMSDP=7.87D-09 MaxDP=1.97D-07 DE=-9.21D-12 OVMax= 3.36D-07

 SCF Done:  E(RB3LYP) =  -649.150509782     A.U. after   17 cycles
            NFock= 17  Conv=0.79D-08     -V/T= 2.0027
 KE= 6.474063989080D+02 PE=-1.749440581144D+03 EE= 3.575311441787D+02
 Leave Link  502 at Wed Oct  4 15:17:21 2023, MaxMem=  1610612736 cpu:             182.5 elap:             102.1
 (Enter /home/sekinelabo/g16/l601.exe)
 Copying SCF densities to generalized density rwf, IOpCl= 0 IROHF=0.

 **********************************************************************

            Population analysis using the SCF Density.

 **********************************************************************

 Orbital symmetries:
       Occupied  (A) (A) (A) (A) (A) (A) (A) (A) (A) (A) (A) (A)
                 (A) (A) (A) (A) (A) (A) (A) (A) (A) (A)
       Virtual   (A) (A) (A) (A) (A) (A) (A) (A) (A) (A) (A) (A)
                 (A) (A) (A) (A) (A) (A) (A) (A) (A) (A) (A) (A)
                 (A) (A) (A) (A) (A) (A) (A) (A) (A) (A) (A) (A)
                 (A) (A) (A) (A) (A) (A) (A) (A) (A) (A) (A) (A)
                 (A) (A) (A) (A) (A) (A) (A) (A) (A) (A) (A) (A)
                 (A) (A) (A) (A) (A) (A) (A) (A) (A) (A) (A) (A)
                 (A) (A) (A) (A) (A) (A) (A) (A) (A) (A) (A) (A)
                 (A) (A) (A) (A) (A) (A) (A) (A) (A) (A) (A) (A)
                 (A) (A)
 The electronic state is 1-A.
 Alpha  occ. eigenvalues --  -38.47027 -38.46400 -38.45286 -38.45098  -2.23006
 Alpha  occ. eigenvalues --   -2.22318  -2.21026  -2.20794  -1.17730  -1.16511
 Alpha  occ. eigenvalues --   -1.16489  -1.15857  -1.15820  -1.15491  -1.14708
 Alpha  occ. eigenvalues --   -1.14696  -1.14652  -1.14482  -1.14467  -1.14431
 Alpha  occ. eigenvalues --   -0.15638  -0.10558
 Alpha virt. eigenvalues --   -0.08685  -0.04808  -0.03675  -0.03277  -0.01929
 Alpha virt. eigenvalues --   -0.01158  -0.00994  -0.00395  -0.00116   0.00087
 Alpha virt. eigenvalues --    0.00543   0.00757   0.01013   0.01194   0.01272
 Alpha virt. eigenvalues --    0.01599   0.01712   0.01787   0.01917   0.02114
 Alpha virt. eigenvalues --    0.02194   0.02339   0.02425   0.02545   0.02665
 Alpha virt. eigenvalues --    0.02843   0.03079   0.03712   0.04229   0.05353
 Alpha virt. eigenvalues --    0.05879   0.06527   0.07384   0.07562   0.08051
 Alpha virt. eigenvalues --    0.08325   0.08574   0.08683   0.08811   0.10155
 Alpha virt. eigenvalues --    0.10367   0.10612   0.11392   0.12075   0.13682
 Alpha virt. eigenvalues --    0.16764   0.27450   0.28262   0.29490   0.29677
 Alpha virt. eigenvalues --    0.33735   0.34226   0.34579   0.34994   0.35096
 Alpha virt. eigenvalues --    0.35199   0.35353   0.35730   0.36035   0.37219
 Alpha virt. eigenvalues --    0.38164   0.41929   0.42155   0.42538   0.42850
 Alpha virt. eigenvalues --    0.43155   0.43598   0.44231   0.44792   0.45145
 Alpha virt. eigenvalues --    0.46946   0.47858   0.48990   0.49951   0.57324
 Alpha virt. eigenvalues --    0.59190   0.60706   0.86998   2.02779   2.02876
 Alpha virt. eigenvalues --    2.07425   2.15336   4.41611   4.42233   4.42994
 Alpha virt. eigenvalues --    4.43722   4.44088   4.44440   4.45207   4.45897
 Alpha virt. eigenvalues --    4.47775   4.50280   4.55092   4.74840  96.22180
 Alpha virt. eigenvalues --   96.22718  96.28179  96.38229
          Condensed to atoms (all electrons):
               1          2          3          4
     1  Na  11.176778  -0.255826  -0.152680   0.272303
     2  Na  -0.255826  10.990947   0.356633  -0.191641
     3  Na  -0.152680   0.356633  10.675886   0.138247
     4  Na   0.272303  -0.191641   0.138247  10.822318
 Mulliken charges:
               1
     1  Na  -0.040574
     2  Na   0.099887
     3  Na  -0.018086
     4  Na  -0.041228
 Sum of Mulliken charges =  -0.00000
 Mulliken charges with hydrogens summed into heavy atoms:
               1
     1  Na  -0.040574
     2  Na   0.099887
     3  Na  -0.018086
     4  Na  -0.041228
 Electronic spatial extent (au):  <R**2>=           1367.2665
 Charge=             -0.0000 electrons
 Dipole moment (field-independent basis, Debye):
    X=             -0.9363    Y=              0.4829    Z=             -0.1498  Tot=              1.0641
 Quadrupole moment (field-independent basis, Debye-Ang):
   XX=            -48.8745   YY=            -36.0829   ZZ=            -42.2176
   XY=              7.6260   XZ=             -0.8503   YZ=             -0.0650
 Traceless Quadrupole moment (field-independent basis, Debye-Ang):
   XX=             -6.4828   YY=              6.3088   ZZ=              0.1741
   XY=              7.6260   XZ=             -0.8503   YZ=             -0.0650
 Octapole moment (field-independent basis, Debye-Ang**2):
  XXX=            -18.4159  YYY=   Leave Link  703 at Wed Oct  4 15:17:26 2023, MaxMem=  1610612736 cpu:              13.3 elap:               7.5
 (Enter /home/sekinelabo/g16/l716.exe)
 Dipole        =-3.68371775D-01 1.89977719D-01-5.89322711D-02
 ***** Axes restored to original set *****
 -------------------------------------------------------------------

 Normal termination of Gaussian 16 at Wed Oct  4 15:17:40 2023.
 Gaussian 16:  ES64L-G16RevB.01 20-Dec-2017
 Error termination via Lnk1e in /home/sekinelabo/g16/l101.exe at Wed Oct  4 15:17:41 2023.
