 Gaussian 16, Revision B.01,

 -------------------------
 #p B3LYP/6-311+g(d) force
 -------------------------

 (Enter /home/sekinelabo/g16/l101.exe)

 Symbolic Z-matrix:
 Charge =  0 Multiplicity = 1

 SCF Done:  E(RB3LYP) =  -649.177402036     A.U. after   16 cycles
 Normal termination of Gaussian 16 at Wed Oct  4 14:13:40 2023.

 -------------------------
 #p B3LYP/6-311+g(d) force
 -------------------------

 (Enter /home/sekinelabo/g16/l101.exe)

 Symbolic Z-matrix:
 Charge =  0 Multiplicity = 1

 SCF Done:  E(RB3LYP) =  -649.178870322     A.U. after   15 cycles
 Normal termination of Gaussian 16 at Wed Oct  4 14:15:55 2023.

 -------------------------
 #p B3LYP/6-311+g(d) force
 -------------------------

 (Enter /home/sekinelabo/g16/l101.exe)

 Symbolic Z-matrix:
 Charge =  0 Multiplicity = 1

 SCF Done:  E(RB3LYP) =  -649.171522061     A.U. after   18 cycles
 Normal termination of Gaussian 16 at Wed Oct  4 14:18:27 2023.

 -------------------------
 #p B3LYP/6-311+g(d) force
 -------------------------

 (Enter /home/sekinelabo/g16/l101.exe)

 Symbolic Z-matrix:
 Charge =  0 Multiplicity = 1

 SCF Done:  E(RB3LYP) =  -649.172986503     A.U. after   13 cycles
 Normal termination of Gaussian 16 at Wed Oct  4 14:20:29 2023.

 -------------------------
 #p B3LYP/6-311+g(d) force
 -------------------------

 (Enter /home/sekinelabo/g16/l101.exe)

 Symbolic Z-matrix:
 Charge =  0 Multiplicity = 1

 SCF Done:  E(RB3LYP) =  -649.180361117     A.U. after   14 cycles

 -------------------------
 #p B3LYP/6-311+g(d) force
 -------------------------

 (Enter /home/sekinelabo/g16/l101.exe)

 Symbolic Z-matrix:
 Charge =  0 Multiplicity = 1

 SCF Done:  E(RB3LYP) =  -649.159584437     A.U. after   18 cycles
 SCF Done:  E(RB3LYP) =  -649.194021714     A.U. after   12 cycles
 SCF Done:  E(RB3LYP) =  -649.172591790     A.U. after   19 cycles
 SCF Done:  E(RB3LYP) =  -649.180266667     A.U. after   18 cycles
 SCF Done:  E(RB3LYP) =  -649.181304964     A.U. after   16 cycles
 SCF Done:  E(RB3LYP) =  -649.179986326     A.U. after   15 cycles
 SCF Done:  E(RB3LYP) =  -649.175792961     A.U. after   14 cycles
 SCF Done:  E(RB3LYP) =  -649.179307469     A.U. after   16 cycles
 SCF Done:  E(RB3LYP) =  -649.168237071     A.U. after   14 cycles
 SCF Done:  E(RB3LYP) =  -649.193119290     A.U. after   12 cycles
 SCF Done:  E(RB3LYP) =  -649.186772243     A.U. after   11 cycles
 SCF Done:  E(RB3LYP) =  -649.192615483     A.U. after   14 cycles
 Normal termination of Gaussian 16 at Wed Oct  4 16:57:03 2023.
 SCF Done:  E(RB3LYP) =  -649.171874058     A.U. after   14 cycles
 Normal termination of Gaussian 16 at Wed Oct  4 16:58:23 2023.
 SCF Done:  E(RB3LYP) =  -649.175459373     A.U. after   16 cycles
 Normal termination of Gaussian 16 at Wed Oct  4 16:59:04 2023.
 Gaussian 16:  ES64L-G16RevB.01 20-Dec-2017

                         Standard orientation:
 ---------------------------------------------------------------------
 Center     Atomic      Atomic             Coordinates (Angstroms)
 Number     Number       Type             X           Y           Z
 ---------------------------------------------------------------------
      1         11           0        1.566743    0.094481    0.353956
      2         11           0        4.197091   -0.570333   -0.210476
      3         11           0       -1.749187    1.834546   -0.109115
      4         11           0       -4.014647   -1.358694   -0.034366
 ---------------------------------------------------------------------

 SCF Done:  E(RB3LYP) =  -649.194685045     A.U. after   12 cycles

 The electronic state is 1-A.
 Alpha  occ. eigenvalues --  -38.45761 -38.45337 -38.43835 -38.43572  -2.21460
 Alpha  occ. eigenvalues --   -2.21060  -2.19674  -2.19419  -1.15139  -1.15138
 Alpha  occ. eigenvalues --   -1.15077  -1.14742  -1.14733  -1.14679  -1.13556
 Alpha  occ. eigenvalues --   -1.13301  -1.13301  -1.13061  -1.13058  -1.12981
 Alpha  occ. eigenvalues --   -0.14158  -0.12036
 Alpha virt. eigenvalues --   -0.07441  -0.04413  -0.02954  -0.02648  -0.01740
 Alpha virt. eigenvalues --   -0.01402  -0.01337  -0.00137   0.00091   0.00283
 Alpha virt. eigenvalues --    0.00565   0.00922   0.01082   0.01225   0.01349

 Mulliken charges:
               1
     1  Na  -0.595009
     2  Na   0.287042
     3  Na   0.234669
     4  Na   0.073297
 Sum of Mulliken charges =  -0.00000

 Dipole moment (field-independent basis, Debye):
    X=             -1.1756    Y=             -0.2557    Z=             -0.1602  Tot=              1.2137
 Quadrupole moment (field-independent basis, Debye-Ang):
   XX=            -31.9815   YY=            -34.1018   ZZ=            -44.0020
   XY=              2.9627   XZ=             -1.4038   YZ=             -0.1349

 Normal termination of Gaussian 16 at Wed Oct  4 16:59:28 2023.
