 Gaussian 16, Revision B.01,

 -------------------------
 #p B3LYP/6-311+g(d) force
 -------------------------

 (Enter /home/sekinelabo/g16/l101.exe)

 Symbolic Z-matrix:
 Charge =  0 Multiplicity = 1

 SCF Done:  E(RB3LYP) =  -649.182618902     A.U. after   12 cycles
 Normal termination of Gaussian 16 at Wed Oct  4 14:13:17 2023.

 -------------------------
 #p B3LYP/6-311+g(d) force
 -------------------------

 (Enter /home/sekinelabo/g16/l101.exe)

 Symbolic Z-matrix:
 Charge =  0 Multiplicity = 1

 SCF Done:  E(RB3LYP) =  -649.169937650     A.U. after   16 cycles
 Normal termination of Gaussian 16 at Wed Oct  4 14:15:40 2023.

 -------------------------
 #p B3LYP/6-311+g(d) force
 -------------------------

 (Enter /home/sekinelabo/g16/l101.exe)

 Symbolic Z-matrix:
 Charge =  0 Multiplicity = 1

 SCF Done:  E(RB3LYP) =  -649.171427251     A.U. after   18 cycles
 Normal termination of Gaussian 16 at Wed Oct  4 14:18:12 2023.

 -------------------------
 #p B3LYP/6-311+g(d) force
 -------------------------

 (Enter /home/sekinelabo/g16/l101.exe)

 Symbolic Z-matrix:
 Charge =  0 Multiplicity = 1

 SCF Done:  E(RB3LYP) =  -649.176211009     A.U. after   18 cycles
 Normal termination of Gaussian 16 at Wed Oct  4 14:20:43 2023.

 -------------------------
 #p B3LYP/6-311+g(d) force
 -------------------------

 (Enter /home/sekinelabo/g16/l101.exe)

 Symbolic Z-matrix:
 Charge =  0 Multiplicity = 1

 SCF Done:  E(RB3LYP) =  -649.162208771     A.U. after   13 cycles

 -------------------------
 #p B3LYP/6-311+g(d) force
 -------------------------

 (Enter /home/sekinelabo/g16/l101.exe)

 Symbolic Z-matrix:
 Charge =  0 Multiplicity = 1

 SCF Done:  E(RB3LYP) =  -649.173201550     A.U. after   12 cycles
 SCF Done:  E(RB3LYP) =  -649.168224424     A.U. after   17 cycles
 SCF Done:  E(RB3LYP) =  -649.140020386     A.U. after   13 cycles
 SCF Done:  E(RB3LYP) =  -649.163973623     A.U. after   18 cycles
 SCF Done:  E(RB3LYP) =  -649.168635271     A.U. after   15 cycles
 SCF Done:  E(RB3LYP) =  -649.189799259     A.U. after   13 cycles
 SCF Done:  E(RB3LYP) =  -649.176437932     A.U. after   15 cycles
 SCF Done:  E(RB3LYP) =  -649.165527787     A.U. after   17 cycles
 SCF Done:  E(RB3LYP) =  -649.166005719     A.U. after   18 cycles
 SCF Done:  E(RB3LYP) =  -649.202233030     A.U. after   12 cycles
 SCF Done:  E(RB3LYP) =  -649.184975742     A.U. after   14 cycles
 SCF Done:  E(RB3LYP) =  -649.192739724     A.U. after   13 cycles
 Normal termination of Gaussian 16 at Wed Oct  4 16:56:56 2023.
 SCF Done:  E(RB3LYP) =  -649.179192382     A.U. after   13 cycles
 Normal termination of Gaussian 16 at Wed Oct  4 16:58:13 2023.
 SCF Done:  E(RB3LYP) =  -649.170157153     A.U. after   11 cycles
 Normal termination of Gaussian 16 at Wed Oct  4 16:58:52 2023.
 Gaussian 16:  ES64L-G16RevB.01 20-Dec-2017

                         Standard orientation:
 ---------------------------------------------------------------------
 Center     Atomic      Atomic             Coordinates (Angstroms)
 Number     Number       Type             X           Y           Z
 ---------------------------------------------------------------------
      1         11           0       -1.625127    1.961833    0.053889
      2         11           0       -4.806001   -1.066661   -0.123865
      3         11           0        1.924003   -0.811617    0.318649
      4         11           0        4.507125   -0.083555   -0.248673
 ---------------------------------------------------------------------

 SCF Done:  E(RB3LYP) =  -649.185565634     A.U. after   12 cycles

 The electronic state is 1-A.
 Alpha  occ. eigenvalues --  -38.45840 -38.45781 -38.44156 -38.44131  -2.21522
 Alpha  occ. eigenvalues --   -2.21463  -2.20011  -2.19955  -1.15207  -1.15195
 Alpha  occ. eigenvalues --   -1.15144  -1.15144  -1.15143  -1.15085  -1.13991
 Alpha  occ. eigenvalues --   -1.13648  -1.13644  -1.13575  -1.13570  -1.13443
 Alpha  occ. eigenvalues --   -0.13782  -0.11942
 Alpha virt. eigenvalues --   -0.07520  -0.04878  -0.02830  -0.02704  -0.02006
 Alpha virt. eigenvalues --   -0.01707  -0.01327  -0.00174  -0.00037   0.00022
 Alpha virt. eigenvalues --    0.00402   0.00895   0.01004   0.01119   0.01388

 Mulliken charges:
               1
     1  Na   0.018541
     2  Na  -0.014650
     3  Na  -0.267710
     4  Na   0.263820
 Sum of Mulliken charges =  -0.00000

 Dipole moment (field-independent basis, Debye):
    X=             -0.2563    Y=              0.1143    Z=             -0.0946  Tot=              0.2962
 Quadrupole moment (field-independent basis, Debye-Ang):
   XX=            -30.4423   YY=            -36.3318   ZZ=            -44.8844
   XY=              7.4428   XZ=             -1.2073   YZ=             -0.3384

 Normal termination of Gaussian 16 at Wed Oct  4 16:59:23 2023.
