 Gaussian 16, Revision B.01,

 -------------------------
 #p B3LYP/6-311+g(d) force
 -------------------------

 (Enter /home/sekinelabo/g16/l101.exe)

 Symbolic Z-matrix:
 Charge =  0 Multiplicity = 1

 SCF Done:  E(RB3LYP) =  -649.180870223     A.U. after   14 cycles
 Normal termination of Gaussian 16 at Thu Oct  5 15:32:39 2023.

 -------------------------
 #p B3LYP/6-311+g(d) force
 -------------------------

 (Enter /home/sekinelabo/g16/l101.exe)

 Symbolic Z-matrix:
 Charge =  0 Multiplicity = 1

 SCF Done:  E(RB3LYP) =  -649.175805594     A.U. after   13 cycles
 Normal termination of Gaussian 16 at Thu Oct  5 15:32:42 2023.

 -------------------------
 #p B3LYP/6-311+g(d) force
 -------------------------

 (Enter /home/sekinelabo/g16/l101.exe)

 Symbolic Z-matrix:
 Charge =  0 Multiplicity = 1

 SCF Done:  E(RB3LYP) =  -649.181424708     A.U. after   11 cycles
 Normal termination of Gaussian 16 at Thu Oct  5 15:32:44 2023.

 -------------------------
 #p B3LYP/6-311+g(d) force
 -------------------------

 (Enter /home/sekinelabo/g16/l101.exe)

 Symbolic Z-matrix:
 Charge =  0 Multiplicity = 1

 SCF Done:  E(RB3LYP) =  -649.177760485     A.U. after   13 cycles
 Normal termination of Gaussian 16 at Thu Oct  5 15:32:47 2023.

 -------------------------
 #p B3LYP/6-311+g(d) force
 -------------------------

 (Enter /home/sekinelabo/g16/l101.exe)

 Symbolic Z-matrix:
 Charge =  0 Multiplicity = 1

 SCF Done:  E(RB3LYP) =  -649.162223266     A.U. after   19 cycles

 -------------------------
 #p B3LYP/6-311+g(d) force
 -------------------------

 (Enter /home/sekinelabo/g16/l101.exe)

 Symbolic Z-matrix:
 Charge =  0 Multiplicity = 1

 SCF Done:  E(RB3LYP) =  -649.184756159     A.U. after   16 cycles
 SCF Done:  E(RB3LYP) =  -649.192381743     A.U. after   13 cycles
 Normal termination of Gaussian 16 at Thu Oct  5 15:32:55 2023.
 SCF Done:  E(RB3LYP) =  -649.156019776     A.U. after   21 cycles
 Normal termination of Gaussian 16 at Thu Oct  5 15:32:58 2023.
 SCF Done:  E(RB3LYP) =  -649.185582425     A.U. after   13 cycles
 Normal termination of Gaussian 16 at Thu Oct  5 15:33:01 2023.
 Gaussian 16:  ES64L-G16RevB.01 20-Dec-2017

                         Standard orientation:
 ---------------------------------------------------------------------
 Center     Atomic      Atomic             Coordinates (Angstroms)
 Number     Number       Type             X           Y           Z
 ---------------------------------------------------------------------
      1         11           0        1.096975    0.419519    0.641147
      2         11           0        2.885489   -0.646407   -0.372136
      3         11           0       -1.425403    1.754206   -0.280476
      4         11           0       -2.557061   -1.527319    0.011466
 ---------------------------------------------------------------------

 SCF Done:  E(RB3LYP) =  -649.178151169     A.U. after   13 cycles

 The electronic state is 1-A.
 Alpha  occ. eigenvalues --  -38.45394 -38.45124 -38.44532 -38.44154  -2.21212
 Alpha  occ. eigenvalues --   -2.20870  -2.20629  -2.20060  -1.15278  -1.14923
 Alpha  occ. eigenvalues --   -1.14864  -1.14811  -1.14545  -1.14544  -1.14484
 Alpha  occ. eigenvalues --   -1.14172  -1.14127  -1.13597  -1.13592  -1.13284
 Alpha  occ. eigenvalues --   -0.15836  -0.11411
 Alpha virt. eigenvalues --   -0.07141  -0.04309  -0.03366  -0.02661  -0.01428
 Alpha virt. eigenvalues --   -0.01298  -0.00297  -0.00010   0.00227   0.00355
 Alpha virt. eigenvalues --    0.00854   0.01066   0.01253   0.01443   0.01653

 Mulliken charges:
               1
     1  Na  -0.933864
     2  Na   0.534032
     3  Na   0.280747
     4  Na   0.119084
 Sum of Mulliken charges =  -0.00000

 Dipole moment (field-independent basis, Debye):
    X=             -1.4809    Y=             -0.1466    Z=             -0.3504  Tot=              1.5288
 Quadrupole moment (field-independent basis, Debye-Ang):
   XX=            -47.0673   YY=            -30.1877   ZZ=            -41.7454
   XY=              0.4812   XZ=             -1.4576   YZ=             -0.2482

 Normal termination of Gaussian 16 at Thu Oct  5 15:33:03 2023.
