 Gaussian 16, Revision B.01,

 -------------------------
 #p B3LYP/6-311+g(d) force
 -------------------------

 (Enter /home/sekinelabo/g16/l101.exe)

 Symbolic Z-matrix:
 Charge =  0 Multiplicity = 1

 SCF Done:  E(RB3LYP) =  -649.162368780     A.U. after   19 cycles
 Normal termination of Gaussian 16 at Thu Sep 21 21:02:40 2023.

 -------------------------
 #p B3LYP/6-311+g(d) force
 -------------------------

 (Enter /home/sekinelabo/g16/l101.exe)

 Symbolic Z-matrix:
 Charge =  0 Multiplicity = 1

 SCF Done:  E(RB3LYP) =  -649.187813638     A.U. after   13 cycles
 Normal termination of Gaussian 16 at Thu Sep 21 21:02:43 2023.

 -------------------------
 #p B3LYP/6-311+g(d) force
 -------------------------

 (Enter /home/sekinelabo/g16/l101.exe)

 Symbolic Z-matrix:
 Charge =  0 Multiplicity = 1

 SCF Done:  E(RB3LYP) =  -649.195912896     A.U. after   13 cycles
 Normal termination of Gaussian 16 at Thu Sep 21 21:02:45 2023.

 -------------------------
 #p B3LYP/6-311+g(d) force
 -------------------------

 (Enter /home/sekinelabo/g16/l101.exe)

 Symbolic Z-matrix:
 Charge =  0 Multiplicity = 1

 SCF Done:  E(RB3LYP) =  -649.196451792     A.U. after   13 cycles
 Normal termination of Gaussian 16 at Thu Sep 21 21:02:48 2023.

 -------------------------
 #p B3LYP/6-311+g(d) force
 -------------------------

 (Enter /home/sekinelabo/g16/l101.exe)

 Symbolic Z-matrix:
 Charge =  0 Multiplicity = 1

 SCF Done:  E(RB3LYP) =  -649.187865451     A.U. after   11 cycles

 -------------------------
 #p B3LYP/6-311+g(d) force
 -------------------------

 (Enter /home/sekinelabo/g16/l101.exe)

 Symbolic Z-matrix:
 Charge =  0 Multiplicity = 1

 SCF Done:  E(RB3LYP) =  -649.180768585     A.U. after   12 cycles
 SCF Done:  E(RB3LYP) =  -649.174181860     A.U. after   11 cycles
 Normal termination of Gaussian 16 at Thu Sep 21 21:02:55 2023.
 SCF Done:  E(RB3LYP) =  -649.169875769     A.U. after   20 cycles
 Normal termination of Gaussian 16 at Thu Sep 21 21:02:58 2023.
 SCF Done:  E(RB3LYP) =  -649.144371614     A.U. after   14 cycles
 Normal termination of Gaussian 16 at Thu Sep 21 21:03:01 2023.
 Gaussian 16:  ES64L-G16RevB.01 20-Dec-2017

                         Standard orientation:
 ---------------------------------------------------------------------
 Center     Atomic      Atomic             Coordinates (Angstroms)
 Number     Number       Type             X           Y           Z
 ---------------------------------------------------------------------
      1         11           0        0.148904   -1.101060    0.346324
      2         11           0       -4.849455   -0.564804   -0.148896
      3         11           0        3.825529   -1.366785   -0.203653
      4         11           0        0.875022    3.032649    0.006225
 ---------------------------------------------------------------------

 SCF Done:  E(RB3LYP) =  -649.165486627     A.U. after   19 cycles

 The electronic state is 1-A.
 Alpha  occ. eigenvalues --  -38.48004 -38.45997 -38.44788 -38.44190  -2.23664
 Alpha  occ. eigenvalues --   -2.21707  -2.20482  -2.19920  -1.17349  -1.17329
 Alpha  occ. eigenvalues --   -1.17296  -1.15413  -1.15376  -1.15309  -1.14156
 Alpha  occ. eigenvalues --   -1.14156  -1.14134  -1.13597  -1.13594  -1.13552
 Alpha  occ. eigenvalues --   -0.13912  -0.10476
 Alpha virt. eigenvalues --   -0.08924  -0.06073  -0.03038  -0.02740  -0.02348
 Alpha virt. eigenvalues --   -0.01803  -0.01150  -0.00891  -0.00637  -0.00053
 Alpha virt. eigenvalues --    0.00092   0.00608   0.00682   0.00827   0.01148

 Mulliken charges:
               1
     1  Na  -0.106947
     2  Na  -0.122514
     3  Na   0.138991
     4  Na   0.090469
 Sum of Mulliken charges =  -0.00000

 Dipole moment (field-independent basis, Debye):
    X=              1.7769    Y=              1.8780    Z=              0.0426  Tot=              2.5858
 Quadrupole moment (field-independent basis, Debye-Ang):
   XX=            -46.0172   YY=            -31.9711   ZZ=            -45.9412
   XY=              6.2123   XZ=             -0.8606   YZ=             -0.7652

 Normal termination of Gaussian 16 at Thu Sep 21 21:03:04 2023.
