 Gaussian 16, Revision B.01,

 -------------------------
 #p B3LYP/6-311+g(d) force
 -------------------------

 (Enter /home/sekinelabo/g16/l101.exe)

 Symbolic Z-matrix:
 Charge =  0 Multiplicity = 1

 SCF Done:  E(RB3LYP) =  -649.177917836     A.U. after   13 cycles
 Normal termination of Gaussian 16 at Thu Sep 21 21:11:15 2023.

 -------------------------
 #p B3LYP/6-311+g(d) force
 -------------------------

 (Enter /home/sekinelabo/g16/l101.exe)

 Symbolic Z-matrix:
 Charge =  0 Multiplicity = 1

 SCF Done:  E(RB3LYP) =  -649.149953680     A.U. after   14 cycles
 Normal termination of Gaussian 16 at Thu Sep 21 21:11:17 2023.

 -------------------------
 #p B3LYP/6-311+g(d) force
 -------------------------

 (Enter /home/sekinelabo/g16/l101.exe)

 Symbolic Z-matrix:
 Charge =  0 Multiplicity = 1

 SCF Done:  E(RB3LYP) =  -649.175945552     A.U. after   21 cycles
 Normal termination of Gaussian 16 at Thu Sep 21 21:11:21 2023.

 -------------------------
 #p B3LYP/6-311+g(d) force
 -------------------------

 (Enter /home/sekinelabo/g16/l101.exe)

 Symbolic Z-matrix:
 Charge =  0 Multiplicity = 1

 SCF Done:  E(RB3LYP) =  -649.182745419     A.U. after   16 cycles
 Normal termination of Gaussian 16 at Thu Sep 21 21:11:23 2023.

 -------------------------
 #p B3LYP/6-311+g(d) force
 -------------------------

 (Enter /home/sekinelabo/g16/l101.exe)

 Symbolic Z-matrix:
 Charge =  0 Multiplicity = 1

 SCF Done:  E(RB3LYP) =  -649.163561422     A.U. after   14 cycles

 -------------------------
 #p B3LYP/6-311+g(d) force
 -------------------------

 (Enter /home/sekinelabo/g16/l101.exe)

 Symbolic Z-matrix:
 Charge =  0 Multiplicity = 1

 SCF Done:  E(RB3LYP) =  -649.161306938     A.U. after   36 cycles
 SCF Done:  E(RB3LYP) =  -649.193288347     A.U. after   13 cycles
 Normal termination of Gaussian 16 at Thu Sep 21 21:11:33 2023.
 SCF Done:  E(RB3LYP) =  -649.167766965     A.U. after   12 cycles
 Normal termination of Gaussian 16 at Thu Sep 21 21:11:36 2023.
 SCF Done:  E(RB3LYP) =  -649.200091278     A.U. after   11 cycles
 Normal termination of Gaussian 16 at Thu Sep 21 21:11:38 2023.
 Gaussian 16:  ES64L-G16RevB.01 20-Dec-2017

                         Standard orientation:
 ---------------------------------------------------------------------
 Center     Atomic      Atomic             Coordinates (Angstroms)
 Number     Number       Type             X           Y           Z
 ---------------------------------------------------------------------
      1         11           0       -0.338260   -0.937584    0.432133
      2         11           0       -4.577103   -0.053014   -0.209663
      3         11           0        3.347590   -1.187106   -0.261090
      4         11           0        1.567773    2.177705    0.038620
 ---------------------------------------------------------------------

 SCF Done:  E(RB3LYP) =  -649.187380814     A.U. after   16 cycles

 The electronic state is 1-A.
 Alpha  occ. eigenvalues --  -38.47554 -38.45573 -38.44515 -38.43082  -2.23267
 Alpha  occ. eigenvalues --   -2.21315  -2.20262  -2.18785  -1.16953  -1.16923
 Alpha  occ. eigenvalues --   -1.16878  -1.14998  -1.14993  -1.14929  -1.13970
 Alpha  occ. eigenvalues --   -1.13958  -1.13847  -1.12466  -1.12466  -1.12413
 Alpha  occ. eigenvalues --   -0.15189  -0.10235
 Alpha virt. eigenvalues --   -0.07772  -0.05918  -0.03479  -0.02437  -0.01962
 Alpha virt. eigenvalues --   -0.01601  -0.00794  -0.00339  -0.00154   0.00106
 Alpha virt. eigenvalues --    0.00530   0.00641   0.00722   0.00996   0.01290

 Mulliken charges:
               1
     1  Na  -0.252476
     2  Na  -0.173091
     3  Na   0.263271
     4  Na   0.162296
 Sum of Mulliken charges =  -0.00000

 Dipole moment (field-independent basis, Debye):
    X=              4.1133    Y=              1.3845    Z=             -0.0577  Tot=              4.3404
 Quadrupole moment (field-independent basis, Debye-Ang):
   XX=            -46.7430   YY=            -28.4945   ZZ=            -44.9171
   XY=             -2.2672   XZ=              0.4678   YZ=              0.0436

 Normal termination of Gaussian 16 at Thu Sep 21 21:11:42 2023.
