 Gaussian 16, Revision B.01,
 Gaussian 16:  ES64L-G16RevB.01 20-Dec-2017

 -------------------------
 #P B3LYP/6-311+g(d) force
 -------------------------

 ------------------------------
 Gaussian input prepared by ASE
 ------------------------------
 Symbolic Z-matrix:
 Charge =  0 Multiplicity = 2

                         Standard orientation:
 ---------------------------------------------------------------------
 Center     Atomic      Atomic             Coordinates (Angstroms)
 Number     Number       Type             X           Y           Z
 ---------------------------------------------------------------------
      1         11           0       -0.502731    0.008441   -1.545274
      2         11           0       -0.610104    1.462650    0.675670
      3         11           0        1.312551   -0.007825    1.804298
      4         11           0        1.639064    1.425559   -0.759282
      5         11           0       -2.875740   -0.002311   -0.064778
      6         11           0       -0.606069   -1.470047    0.663758
      7         11           0        1.643028   -1.416467   -0.774393
 ---------------------------------------------------------------------

 SCF Done:  E(UB3LYP) =  -1136.03004186     A.U. after   24 cycles

 The electronic state is 2-A.
 Alpha  occ. eigenvalues --  -38.45268 -38.45233 -38.44513 -38.44002 -38.43987
 Alpha  occ. eigenvalues --  -38.43836 -38.43815  -2.21723  -2.21508  -2.20591
 Alpha  occ. eigenvalues --   -2.20277  -2.20254  -2.20201  -2.20164  -1.15666
 Alpha  occ. eigenvalues --   -1.15544  -1.15425  -1.15403  -1.15167  -1.15106
 Alpha  occ. eigenvalues --   -1.14463  -1.14288  -1.14239  -1.14171  -1.14147
 Alpha  occ. eigenvalues --   -1.14046  -1.13929  -1.13843  -1.13824  -1.13784
 Alpha  occ. eigenvalues --   -1.13759  -1.13720  -1.13646  -1.13551  -1.13499
 Alpha  occ. eigenvalues --   -0.22523  -0.14340  -0.13419  -0.12224
 Alpha virt. eigenvalues --   -0.05491  -0.04121  -0.04021  -0.03612  -0.03104
 Alpha virt. eigenvalues --   -0.02842  -0.01167  -0.00363  -0.00189   0.00263
 Alpha virt. eigenvalues --    0.00851   0.01042   0.01076   0.01114   0.01143

  Beta  occ. eigenvalues --  -38.45178 -38.45146 -38.44511 -38.43970 -38.43956
  Beta  occ. eigenvalues --  -38.43800 -38.43780  -2.21570  -2.21348  -2.20590
  Beta  occ. eigenvalues --   -2.20225  -2.20201  -2.20148  -2.20112  -1.15583
  Beta  occ. eigenvalues --   -1.15414  -1.15307  -1.15293  -1.15053  -1.14992
  Beta  occ. eigenvalues --   -1.14449  -1.14281  -1.14214  -1.14141  -1.14124
  Beta  occ. eigenvalues --   -1.14003  -1.13881  -1.13767  -1.13740  -1.13709
  Beta  occ. eigenvalues --   -1.13673  -1.13661  -1.13624  -1.13519  -1.13457
  Beta  occ. eigenvalues --   -0.21633  -0.14068  -0.11921
  Beta virt. eigenvalues --   -0.08844  -0.05408  -0.03618  -0.03435  -0.03305
  Beta virt. eigenvalues --   -0.02264  -0.02086  -0.01107  -0.00178  -0.00104
  Beta virt. eigenvalues --    0.00306   0.00911   0.01121   0.01125   0.01128

 Mulliken charges and spin densities:
               1          2
     1  Na  -0.433326   0.139192
     2  Na  -0.277127   0.518181
     3  Na   0.204349  -0.117683
     4  Na  -0.024318   0.042059
     5  Na   0.834841  -0.141237
     6  Na  -0.277138   0.515424
     7  Na  -0.027282   0.044064
 Sum of Mulliken charges =  -0.00000   1.00000

 Dipole moment (field-independent basis, Debye):
    X=             -0.0445    Y=             -0.0058    Z=              0.2120  Tot=              0.2167
 Quadrupole moment (field-independent basis, Debye-Ang):
   XX=            -57.6902   YY=            -76.5695   ZZ=            -63.7939
   XY=              0.0040   XZ=             -0.4440   YZ=              0.0303

 Normal termination of Gaussian 16 at Mon Nov 13 20:40:06 2023.
