 Gaussian 16, Revision B.01,
 Gaussian 16:  ES64L-G16RevB.01 20-Dec-2017

 -------------------------
 #P B3LYP/6-311+g(d) force
 -------------------------

 ------------------------------
 Gaussian input prepared by ASE
 ------------------------------
 Symbolic Z-matrix:
 Charge =  0 Multiplicity = 2

                         Standard orientation:
 ---------------------------------------------------------------------
 Center     Atomic      Atomic             Coordinates (Angstroms)
 Number     Number       Type             X           Y           Z
 ---------------------------------------------------------------------
      1         11           0       -0.004812    0.003725   -1.205337
      2         11           0        1.489645    1.468684    0.948433
      3         11           0        2.995780    0.053601   -1.226130
      4         11           0        1.537944   -1.521069    0.870939
      5         11           0       -0.993432   -0.085611    1.611891
      6         11           0       -2.476236    1.534786   -0.439560
      7         11           0       -2.548890   -1.454117   -0.560236
 ---------------------------------------------------------------------

 SCF Done:  E(UB3LYP) =  -1136.09198831     A.U. after   26 cycles

 The electronic state is 2-A.
 Alpha  occ. eigenvalues --  -38.44699 -38.44633 -38.43951 -38.43847 -38.43600
 Alpha  occ. eigenvalues --  -38.43200 -38.42037  -2.20692  -2.20623  -2.20048
 Alpha  occ. eigenvalues --   -2.19939  -2.19583  -2.19446  -2.18222  -1.14493
 Alpha  occ. eigenvalues --   -1.14370  -1.14322  -1.14308  -1.14252  -1.14159
 Alpha  occ. eigenvalues --   -1.13899  -1.13743  -1.13687  -1.13655  -1.13592
 Alpha  occ. eigenvalues --   -1.13493  -1.13298  -1.13215  -1.13200  -1.13130
 Alpha  occ. eigenvalues --   -1.13109  -1.13013  -1.11933  -1.11875  -1.11835
 Alpha  occ. eigenvalues --   -0.20683  -0.15024  -0.12051  -0.10904
 Alpha virt. eigenvalues --   -0.06296  -0.05239  -0.04274  -0.03127  -0.02168
 Alpha virt. eigenvalues --   -0.02073  -0.01881  -0.00946  -0.00377   0.00276
 Alpha virt. eigenvalues --    0.00344   0.00482   0.00749   0.00825   0.00871

  Beta  occ. eigenvalues --  -38.44662 -38.44596 -38.43906 -38.43808 -38.43601
  Beta  occ. eigenvalues --  -38.43166 -38.42014  -2.20624  -2.20557  -2.19967
  Beta  occ. eigenvalues --   -2.19867  -2.19587  -2.19397  -2.18189  -1.14459
  Beta  occ. eigenvalues --   -1.14311  -1.14272  -1.14247  -1.14206  -1.14102
  Beta  occ. eigenvalues --   -1.13858  -1.13675  -1.13633  -1.13594  -1.13542
  Beta  occ. eigenvalues --   -1.13435  -1.13293  -1.13205  -1.13191  -1.13091
  Beta  occ. eigenvalues --   -1.12998  -1.12994  -1.11919  -1.11828  -1.11769
  Beta  occ. eigenvalues --   -0.19788  -0.14859  -0.10690
  Beta virt. eigenvalues --   -0.07858  -0.06063  -0.04473  -0.04231  -0.02666
  Beta virt. eigenvalues --   -0.01962  -0.01562  -0.01445  -0.00403  -0.00356
  Beta virt. eigenvalues --    0.00312   0.00452   0.00660   0.00769   0.00883

 Mulliken charges and spin densities:
               1          2
     1  Na  -0.830179   0.423551
     2  Na  -0.417852   0.119898
     3  Na   0.860193  -0.155047
     4  Na  -0.404660   0.090703
     5  Na   0.266320   0.466681
     6  Na   0.228530   0.057565
     7  Na   0.297648  -0.003350
 Sum of Mulliken charges =  -0.00000   1.00000

 Dipole moment (field-independent basis, Debye):
    X=             -0.3837    Y=             -0.0163    Z=              0.3761  Tot=              0.5375
 Quadrupole moment (field-independent basis, Debye-Ang):
   XX=            -51.9065   YY=            -61.9694   ZZ=            -80.5445
   XY=              0.0043   XZ=              0.6372   YZ=              1.1825

 Normal termination of Gaussian 16 at Mon Nov 13 18:04:14 2023.
