 Gaussian 16, Revision B.01,
 Gaussian 16:  ES64L-G16RevB.01 20-Dec-2017

 -------------------------
 #P B3LYP/6-311+g(d) force
 -------------------------

 ------------------------------
 Gaussian input prepared by ASE
 ------------------------------
 Symbolic Z-matrix:
 Charge =  0 Multiplicity = 2

                         Standard orientation:
 ---------------------------------------------------------------------
 Center     Atomic      Atomic             Coordinates (Angstroms)
 Number     Number       Type             X           Y           Z
 ---------------------------------------------------------------------
      1         11           0       -3.719841    0.914965    0.088233
      2         11           0       -1.177642    2.190528   -0.860618
      3         11           0       -3.240848   -2.024938   -0.260431
      4         11           0       -1.078257   -0.268384    0.856077
      5         11           0        1.888394   -0.252213    1.324251
      6         11           0        2.889965   -1.351692   -1.282710
      7         11           0        4.438229    0.791734    0.135199
 ---------------------------------------------------------------------

 SCF Done:  E(UB3LYP) =  -1136.08921077     A.U. after   30 cycles

 The electronic state is 2-A.
 Alpha  occ. eigenvalues --  -38.46285 -38.45391 -38.44305 -38.43906 -38.42891
 Alpha  occ. eigenvalues --  -38.42831 -38.42188  -2.22154  -2.21300  -2.20319
 Alpha  occ. eigenvalues --   -2.19907  -2.19014  -2.18743  -2.18101  -1.15865
 Alpha  occ. eigenvalues --   -1.15825  -1.15787  -1.14992  -1.14934  -1.14899
 Alpha  occ. eigenvalues --   -1.14041  -1.13976  -1.13898  -1.13641  -1.13564
 Alpha  occ. eigenvalues --   -1.13532  -1.12752  -1.12682  -1.12667  -1.12414
 Alpha  occ. eigenvalues --   -1.12377  -1.12333  -1.11784  -1.11745  -1.11722
 Alpha  occ. eigenvalues --   -0.18151  -0.15862  -0.11133  -0.10459
 Alpha virt. eigenvalues --   -0.07194  -0.05376  -0.04441  -0.03558  -0.02824
 Alpha virt. eigenvalues --   -0.01937  -0.01779  -0.01495  -0.00793  -0.00489
 Alpha virt. eigenvalues --    0.00034   0.00154   0.00263   0.00484   0.00616

  Beta  occ. eigenvalues --  -38.46289 -38.45343 -38.44251 -38.43867 -38.42845
  Beta  occ. eigenvalues --  -38.42801 -38.42173  -2.22165  -2.21209  -2.20227
  Beta  occ. eigenvalues --   -2.19839  -2.18938  -2.18689  -2.18075  -1.15879
  Beta  occ. eigenvalues --   -1.15816  -1.15777  -1.14932  -1.14870  -1.14840
  Beta  occ. eigenvalues --   -1.13936  -1.13907  -1.13852  -1.13603  -1.13512
  Beta  occ. eigenvalues --   -1.13466  -1.12677  -1.12618  -1.12609  -1.12366
  Beta  occ. eigenvalues --   -1.12339  -1.12291  -1.11767  -1.11717  -1.11705
  Beta  occ. eigenvalues --   -0.17509  -0.15417  -0.10187
  Beta virt. eigenvalues --   -0.07271  -0.07063  -0.05008  -0.04075  -0.03281
  Beta virt. eigenvalues --   -0.02653  -0.01679  -0.01247  -0.00965  -0.00585
  Beta virt. eigenvalues --   -0.00298   0.00043   0.00214   0.00416   0.00612

 Mulliken charges and spin densities:
               1          2
     1  Na   1.098128   0.291319
     2  Na  -0.039203   0.098718
     3  Na   0.746078  -0.064174
     4  Na  -1.454661   0.523342
     5  Na  -0.609996  -0.268665
     6  Na  -0.124317   0.063354
     7  Na   0.383971   0.356106
 Sum of Mulliken charges =  -0.00000   1.00000

 Dipole moment (field-independent basis, Debye):
    X=              2.9261    Y=              0.3218    Z=             -0.6749  Tot=              3.0201
 Quadrupole moment (field-independent basis, Debye-Ang):
   XX=            -65.8211   YY=            -72.1024   ZZ=            -64.9327
   XY=             -2.4064   XZ=              1.5812   YZ=              4.0052

 Normal termination of Gaussian 16 at Mon Nov 13 17:15:51 2023.
