 Gaussian 16, Revision B.01,
 Gaussian 16:  ES64L-G16RevB.01 20-Dec-2017

 -------------------------
 #P B3LYP/6-311+g(d) force
 -------------------------

 ------------------------------
 Gaussian input prepared by ASE
 ------------------------------
 Symbolic Z-matrix:
 Charge =  0 Multiplicity = 2

                         Standard orientation:
 ---------------------------------------------------------------------
 Center     Atomic      Atomic             Coordinates (Angstroms)
 Number     Number       Type             X           Y           Z
 ---------------------------------------------------------------------
      1         11           0        0.410245    2.382608    0.807815
      2         11           0        1.426193    0.763408   -2.172880
      3         11           0       -3.891682    0.007775   -0.474320
      4         11           0       -0.924219    0.006550   -0.459918
      5         11           0       -0.128094   -0.772665    2.330913
      6         11           0        0.887643   -2.380559   -0.649512
      7         11           0        2.219914   -0.007116    0.617901
 ---------------------------------------------------------------------

 SCF Done:  E(UB3LYP) =  -1136.10412025     A.U. after   27 cycles

 The electronic state is 2-A.
 Alpha  occ. eigenvalues --  -38.44474 -38.44334 -38.44135 -38.43619 -38.43473
 Alpha  occ. eigenvalues --  -38.43161 -38.42461  -2.20435  -2.20131  -2.20102
 Alpha  occ. eigenvalues --   -2.19764  -2.19434  -2.19126  -2.18699  -1.14190
 Alpha  occ. eigenvalues --   -1.14081  -1.14006  -1.13856  -1.13835  -1.13791
 Alpha  occ. eigenvalues --   -1.13762  -1.13758  -1.13665  -1.13500  -1.13443
 Alpha  occ. eigenvalues --   -1.13365  -1.13152  -1.13071  -1.13007  -1.12872
 Alpha  occ. eigenvalues --   -1.12763  -1.12714  -1.12415  -1.12337  -1.12284
 Alpha  occ. eigenvalues --   -0.20136  -0.13066  -0.12484  -0.11703
 Alpha virt. eigenvalues --   -0.05902  -0.04319  -0.03969  -0.03188  -0.03089
 Alpha virt. eigenvalues --   -0.02717  -0.01472  -0.00842  -0.00530   0.00256
 Alpha virt. eigenvalues --    0.00364   0.00538   0.00599   0.00879   0.00981

  Beta  occ. eigenvalues --  -38.44403 -38.44324 -38.44079 -38.43591 -38.43436
  Beta  occ. eigenvalues --  -38.43136 -38.42433  -2.20309  -2.20113  -2.20002
  Beta  occ. eigenvalues --   -2.19723  -2.19370  -2.19084  -2.18654  -1.14100
  Beta  occ. eigenvalues --   -1.13988  -1.13912  -1.13828  -1.13782  -1.13750
  Beta  occ. eigenvalues --   -1.13747  -1.13719  -1.13587  -1.13449  -1.13400
  Beta  occ. eigenvalues --   -1.13318  -1.13113  -1.13010  -1.12957  -1.12839
  Beta  occ. eigenvalues --   -1.12738  -1.12665  -1.12334  -1.12304  -1.12261
  Beta  occ. eigenvalues --   -0.19150  -0.12282  -0.11588
  Beta virt. eigenvalues --   -0.08668  -0.05640  -0.03782  -0.03681  -0.02693
  Beta virt. eigenvalues --   -0.02524  -0.02141  -0.01395  -0.00549  -0.00437
  Beta virt. eigenvalues --    0.00299   0.00529   0.00580   0.00656   0.00910

 Mulliken charges and spin densities:
               1          2
     1  Na  -0.013469   0.344249
     2  Na   0.524262   0.323730
     3  Na   0.148186  -0.220445
     4  Na  -1.301796  -0.210032
     5  Na   0.154433   0.385317
     6  Na  -0.009437   0.286006
     7  Na   0.497821   0.091175
 Sum of Mulliken charges =  -0.00000   1.00000

 Dipole moment (field-independent basis, Debye):
    X=              0.0790    Y=             -0.0172    Z=              0.1044  Tot=              0.1320
 Quadrupole moment (field-independent basis, Debye-Ang):
   XX=            -61.4920   YY=            -71.3104   ZZ=            -59.8602
   XY=              0.3741   XZ=             -0.6534   YZ=              3.3782

 Normal termination of Gaussian 16 at Mon Nov 13 19:45:25 2023.
