 Gaussian 16, Revision B.01,
 Gaussian 16:  ES64L-G16RevB.01 20-Dec-2017

 -------------------------
 #P B3LYP/6-311+g(d) force
 -------------------------

 ------------------------------
 Gaussian input prepared by ASE
 ------------------------------
 Symbolic Z-matrix:
 Charge =  0 Multiplicity = 2

                         Standard orientation:
 ---------------------------------------------------------------------
 Center     Atomic      Atomic             Coordinates (Angstroms)
 Number     Number       Type             X           Y           Z
 ---------------------------------------------------------------------
      1         11           0        0.268482    0.005548   -1.486817
      2         11           0        1.271147   -2.200282    0.110881
      3         11           0        2.619690    0.563250    0.142661
      4         11           0        0.319565    2.576548   -0.086437
      5         11           0       -2.393927    1.154847    0.105662
      6         11           0       -0.338478   -0.288605    1.623148
      7         11           0       -1.746479   -1.811306   -0.409097
 ---------------------------------------------------------------------

 SCF Done:  E(UB3LYP) =  -1136.10733814     A.U. after   19 cycles

 The electronic state is 2-A.
 Alpha  occ. eigenvalues --  -38.43557 -38.43486 -38.43485 -38.43407 -38.43383
 Alpha  occ. eigenvalues --  -38.43302 -38.43225  -2.19578  -2.19571  -2.19516
 Alpha  occ. eigenvalues --   -2.19508  -2.19494  -2.19470  -2.19390  -1.13573
 Alpha  occ. eigenvalues --   -1.13493  -1.13437  -1.13341  -1.13309  -1.13283
 Alpha  occ. eigenvalues --   -1.13267  -1.13218  -1.13175  -1.13158  -1.13131
 Alpha  occ. eigenvalues --   -1.13097  -1.13086  -1.13046  -1.13023  -1.13023
 Alpha  occ. eigenvalues --   -1.12995  -1.12990  -1.12975  -1.12954  -1.12939
 Alpha  occ. eigenvalues --   -0.20903  -0.13557  -0.13354  -0.11271
 Alpha virt. eigenvalues --   -0.04996  -0.04717  -0.04692  -0.03178  -0.03046
 Alpha virt. eigenvalues --   -0.02183  -0.01047  -0.00896   0.00031   0.00350
 Alpha virt. eigenvalues --    0.00408   0.00475   0.01011   0.01055   0.01066

  Beta  occ. eigenvalues --  -38.43549 -38.43475 -38.43467 -38.43393 -38.43374
  Beta  occ. eigenvalues --  -38.43220 -38.43147  -2.19562  -2.19540  -2.19492
  Beta  occ. eigenvalues --   -2.19465  -2.19389  -2.19359  -2.19352  -1.13530
  Beta  occ. eigenvalues --   -1.13455  -1.13393  -1.13302  -1.13266  -1.13245
  Beta  occ. eigenvalues --   -1.13222  -1.13182  -1.13150  -1.13104  -1.13098
  Beta  occ. eigenvalues --   -1.13073  -1.13025  -1.13010  -1.12982  -1.12965
  Beta  occ. eigenvalues --   -1.12953  -1.12920  -1.12912  -1.12898  -1.12872
  Beta  occ. eigenvalues --   -0.20136  -0.13234  -0.13018
  Beta virt. eigenvalues --   -0.07150  -0.05005  -0.04705  -0.04679  -0.02302
  Beta virt. eigenvalues --   -0.02162  -0.01127  -0.00980  -0.00827   0.00157
  Beta virt. eigenvalues --    0.00357   0.00393   0.00427   0.01039   0.01058

 Mulliken charges and spin densities:
               1          2
     1  Na  -0.930432   0.371036
     2  Na   0.497633   0.035661
     3  Na   0.183744   0.006901
     4  Na   0.225838  -0.019499
     5  Na   0.328656   0.009414
     6  Na  -0.752110   0.564039
     7  Na   0.446671   0.032449
 Sum of Mulliken charges =  -0.00000   1.00000

 Dipole moment (field-independent basis, Debye):
    X=              0.0142    Y=              0.1328    Z=              0.1530  Tot=              0.2031
 Quadrupole moment (field-independent basis, Debye-Ang):
   XX=            -59.7777   YY=            -62.0742   ZZ=            -73.0508
   XY=             -0.1522   XZ=              1.2607   YZ=              0.5957

 Normal termination of Gaussian 16 at Mon Nov 13 18:09:04 2023.
