 Gaussian 16, Revision B.01,
 Gaussian 16:  ES64L-G16RevB.01 20-Dec-2017

 -------------------------
 #P B3LYP/6-311+g(d) force
 -------------------------

 ------------------------------
 Gaussian input prepared by ASE
 ------------------------------
 Symbolic Z-matrix:
 Charge =  0 Multiplicity = 2

                         Standard orientation:
 ---------------------------------------------------------------------
 Center     Atomic      Atomic             Coordinates (Angstroms)
 Number     Number       Type             X           Y           Z
 ---------------------------------------------------------------------
      1         11           0        1.273431    2.228163   -0.188381
      2         11           0        4.501329   -0.647533    1.441536
      3         11           0        3.055497   -0.007241   -1.103944
      4         11           0        0.697343   -1.864302   -1.045616
      5         11           0       -0.714562    0.150122    0.674242
      6         11           0       -3.400605    1.127738   -0.229873
      7         11           0       -5.412434   -0.986948    0.452035
 ---------------------------------------------------------------------

 SCF Done:  E(UB3LYP) =  -1136.09533910     A.U. after   24 cycles

 The electronic state is 2-A.
 Alpha  occ. eigenvalues --  -38.44990 -38.44607 -38.44192 -38.44178 -38.44066
 Alpha  occ. eigenvalues --  -38.44033 -38.43757  -2.20918  -2.20526  -2.20181
 Alpha  occ. eigenvalues --   -2.20162  -2.19917  -2.19862  -2.19563  -1.14614
 Alpha  occ. eigenvalues --   -1.14577  -1.14499  -1.14248  -1.14221  -1.14122
 Alpha  occ. eigenvalues --   -1.13914  -1.13878  -1.13857  -1.13823  -1.13788
 Alpha  occ. eigenvalues --   -1.13749  -1.13600  -1.13567  -1.13552  -1.13520
 Alpha  occ. eigenvalues --   -1.13506  -1.13498  -1.13212  -1.13209  -1.13191
 Alpha  occ. eigenvalues --   -0.18327  -0.14283  -0.11741  -0.11100
 Alpha virt. eigenvalues --   -0.07093  -0.05446  -0.03891  -0.03726  -0.03261
 Alpha virt. eigenvalues --   -0.02618  -0.01661  -0.01536  -0.00833  -0.00602
 Alpha virt. eigenvalues --   -0.00328  -0.00088   0.00362   0.00531   0.00677

  Beta  occ. eigenvalues --  -38.44874 -38.44534 -38.44171 -38.44160 -38.44079
  Beta  occ. eigenvalues --  -38.44030 -38.43753  -2.20704  -2.20391  -2.20148
  Beta  occ. eigenvalues --   -2.20136  -2.19912  -2.19887  -2.19555  -1.14461
  Beta  occ. eigenvalues --   -1.14443  -1.14355  -1.14156  -1.14138  -1.14028
  Beta  occ. eigenvalues --   -1.13896  -1.13870  -1.13777  -1.13770  -1.13762
  Beta  occ. eigenvalues --   -1.13720  -1.13593  -1.13561  -1.13548  -1.13538
  Beta  occ. eigenvalues --   -1.13518  -1.13509  -1.13206  -1.13203  -1.13186
  Beta  occ. eigenvalues --   -0.17541  -0.14101  -0.10995
  Beta virt. eigenvalues --   -0.07646  -0.06886  -0.05208  -0.03508  -0.03263
  Beta virt. eigenvalues --   -0.02733  -0.02120  -0.01537  -0.01064  -0.00609
  Beta virt. eigenvalues --   -0.00495  -0.00283   0.00187   0.00411   0.00576

 Mulliken charges and spin densities:
               1          2
     1  Na   0.619560   0.248977
     2  Na  -0.155090  -0.171861
     3  Na   0.378183   0.458641
     4  Na   0.185391   0.313244
     5  Na  -1.502960   0.084541
     6  Na   0.292479   0.073355
     7  Na   0.182438  -0.006896
 Sum of Mulliken charges =  -0.00000   1.00000

 Dipole moment (field-independent basis, Debye):
    X=              0.0605    Y=             -0.1756    Z=              0.0107  Tot=              0.1860
 Quadrupole moment (field-independent basis, Debye-Ang):
   XX=            -77.7111   YY=            -66.5082   ZZ=            -64.3385
   XY=              4.1747   XZ=              1.0672   YZ=             -3.0715

 Normal termination of Gaussian 16 at Mon Nov 13 14:50:37 2023.
