 Gaussian 16, Revision B.01,
 Gaussian 16:  ES64L-G16RevB.01 20-Dec-2017

 -------------------------
 #P B3LYP/6-311+g(d) force
 -------------------------

 ------------------------------
 Gaussian input prepared by ASE
 ------------------------------
 Symbolic Z-matrix:
 Charge =  0 Multiplicity = 2

                         Standard orientation:
 ---------------------------------------------------------------------
 Center     Atomic      Atomic             Coordinates (Angstroms)
 Number     Number       Type             X           Y           Z
 ---------------------------------------------------------------------
      1         11           0       -1.005421   -0.120059    1.455637
      2         11           0        0.832073   -2.223997   -0.024260
      3         11           0       -3.370008   -0.074761   -0.269567
      4         11           0       -0.647875   -0.246805   -1.326873
      5         11           0        1.803949   -0.035199    1.408206
      6         11           0        2.100618    0.334761   -1.360753
      7         11           0        0.286665    2.366060    0.117610
 ---------------------------------------------------------------------

 SCF Done:  E(UB3LYP) =  -1136.08671943     A.U. after   23 cycles

 The electronic state is 2-A.
 Alpha  occ. eigenvalues --  -38.44619 -38.44287 -38.44274 -38.43857 -38.43848
 Alpha  occ. eigenvalues --  -38.42759 -38.42372  -2.20525  -2.20492  -2.20390
 Alpha  occ. eigenvalues --   -2.20155  -2.20067  -2.18858  -2.18391  -1.14403
 Alpha  occ. eigenvalues --   -1.14377  -1.14321  -1.14250  -1.14187  -1.14109
 Alpha  occ. eigenvalues --   -1.14094  -1.14025  -1.13933  -1.13889  -1.13776
 Alpha  occ. eigenvalues --   -1.13688  -1.13667  -1.13609  -1.13580  -1.12564
 Alpha  occ. eigenvalues --   -1.12509  -1.12420  -1.12113  -1.12050  -1.11989
 Alpha  occ. eigenvalues --   -0.21100  -0.13837  -0.12506  -0.12072
 Alpha virt. eigenvalues --   -0.05948  -0.03970  -0.03599  -0.03441  -0.03060
 Alpha virt. eigenvalues --   -0.02804  -0.01606  -0.00427  -0.00361   0.00292
 Alpha virt. eigenvalues --    0.00597   0.00744   0.00898   0.01007   0.01059

  Beta  occ. eigenvalues --  -38.44615 -38.44226 -38.44222 -38.43794 -38.43785
  Beta  occ. eigenvalues --  -38.42747 -38.42362  -2.20519  -2.20387  -2.20297
  Beta  occ. eigenvalues --   -2.20045  -2.19956  -2.18842  -2.18379  -1.14350
  Beta  occ. eigenvalues --   -1.14313  -1.14247  -1.14205  -1.14123  -1.14106
  Beta  occ. eigenvalues --   -1.14021  -1.13958  -1.13869  -1.13816  -1.13705
  Beta  occ. eigenvalues --   -1.13607  -1.13580  -1.13532  -1.13484  -1.12559
  Beta  occ. eigenvalues --   -1.12466  -1.12391  -1.12110  -1.11999  -1.11987
  Beta  occ. eigenvalues --   -0.20263  -0.13688  -0.11732
  Beta virt. eigenvalues --   -0.08069  -0.05863  -0.03530  -0.03386  -0.03351
  Beta virt. eigenvalues --   -0.01990  -0.01931  -0.01479  -0.00345  -0.00111
  Beta virt. eigenvalues --    0.00326   0.00655   0.00854   0.00924   0.01008

 Mulliken charges and spin densities:
               1          2
     1  Na  -0.083432   0.123175
     2  Na  -0.939607   0.306057
     3  Na  -0.262475   0.088363
     4  Na   0.614895   0.319976
     5  Na   1.071872   0.148390
     6  Na   0.648444  -0.004924
     7  Na  -1.049697   0.018963
 Sum of Mulliken charges =  -0.00000   1.00000

 Dipole moment (field-independent basis, Debye):
    X=             -0.4736    Y=              0.2057    Z=             -0.0957  Tot=              0.5251
 Quadrupole moment (field-independent basis, Debye-Ang):
   XX=            -54.9508   YY=            -72.9323   ZZ=            -66.4851
   XY=             -0.2683   XZ=              0.0662   YZ=             -0.0661

 Normal termination of Gaussian 16 at Mon Nov 13 19:38:28 2023.
