 Gaussian 16, Revision B.01,
 Gaussian 16:  ES64L-G16RevB.01 20-Dec-2017

 -------------------------
 #P B3LYP/6-311+g(d) force
 -------------------------

 ------------------------------
 Gaussian input prepared by ASE
 ------------------------------
 Symbolic Z-matrix:
 Charge =  0 Multiplicity = 2

                         Standard orientation:
 ---------------------------------------------------------------------
 Center     Atomic      Atomic             Coordinates (Angstroms)
 Number     Number       Type             X           Y           Z
 ---------------------------------------------------------------------
      1         11           0        0.681929    1.753335    0.002593
      2         11           0       -0.104203   -0.003865    1.721156
      3         11           0       -1.882249   -1.322391   -0.001408
      4         11           0        0.677206   -1.755066   -0.003174
      5         11           0        2.609355   -0.002193   -0.000366
      6         11           0       -0.104459    0.003754   -1.719652
      7         11           0       -1.877579    1.326425    0.000851
 ---------------------------------------------------------------------

 SCF Done:  E(UB3LYP) =  -1136.01121784     A.U. after   23 cycles

 The electronic state is 2-A.
 Alpha  occ. eigenvalues --  -38.45283 -38.45278 -38.44703 -38.44498 -38.44493
 Alpha  occ. eigenvalues --  -38.44348 -38.44347  -2.21736  -2.21713  -2.20954
 Alpha  occ. eigenvalues --   -2.20917  -2.20808  -2.20662  -2.20576  -1.15885
 Alpha  occ. eigenvalues --   -1.15640  -1.15606  -1.15574  -1.15447  -1.15335
 Alpha  occ. eigenvalues --   -1.15037  -1.15029  -1.14670  -1.14578  -1.14572
 Alpha  occ. eigenvalues --   -1.14464  -1.14348  -1.14338  -1.14271  -1.14204
 Alpha  occ. eigenvalues --   -1.14196  -1.14149  -1.14025  -1.14001  -1.13859
 Alpha  occ. eigenvalues --   -0.22936  -0.14466  -0.12977  -0.12959
 Alpha virt. eigenvalues --   -0.05422  -0.04026  -0.03999  -0.03968  -0.03262
 Alpha virt. eigenvalues --   -0.02759  -0.01121  -0.00274  -0.00116   0.00287
 Alpha virt. eigenvalues --    0.00860   0.01039   0.01076   0.01258   0.01295

  Beta  occ. eigenvalues --  -38.45178 -38.45173 -38.44694 -38.44474 -38.44470
  Beta  occ. eigenvalues --  -38.44330 -38.44330  -2.21553  -2.21525  -2.20928
  Beta  occ. eigenvalues --   -2.20885  -2.20788  -2.20639  -2.20553  -1.15804
  Beta  occ. eigenvalues --   -1.15530  -1.15464  -1.15457  -1.15346  -1.15195
  Beta  occ. eigenvalues --   -1.15022  -1.15006  -1.14650  -1.14549  -1.14544
  Beta  occ. eigenvalues --   -1.14384  -1.14262  -1.14261  -1.14222  -1.14188
  Beta  occ. eigenvalues --   -1.14105  -1.14062  -1.14018  -1.13993  -1.13851
  Beta  occ. eigenvalues --   -0.22074  -0.14026  -0.12551
  Beta virt. eigenvalues --   -0.08616  -0.05467  -0.03981  -0.03832  -0.02973
  Beta virt. eigenvalues --   -0.02279  -0.01777  -0.01042  -0.00241   0.00034
  Beta virt. eigenvalues --    0.00313   0.00896   0.01032   0.01109   0.01254

 Mulliken charges and spin densities:
               1          2
     1  Na   0.184414   0.039216
     2  Na  -0.060985   0.501502
     3  Na   0.086342   0.009460
     4  Na   0.184505   0.038902
     5  Na  -0.418358  -0.099741
     6  Na  -0.062661   0.500959
     7  Na   0.086743   0.009702
 Sum of Mulliken charges =  -0.00000   1.00000

 Dipole moment (field-independent basis, Debye):
    X=              0.1691    Y=             -0.0017    Z=              0.0032  Tot=              0.1691
 Quadrupole moment (field-independent basis, Debye-Ang):
   XX=            -59.5179   YY=            -73.0656   ZZ=            -67.4747
   XY=             -0.0023   XZ=             -0.0007   YZ=              0.0120

 Normal termination of Gaussian 16 at Mon Nov 13 20:49:39 2023.
