 Gaussian 16, Revision B.01,
 Gaussian 16:  ES64L-G16RevB.01 20-Dec-2017

 -------------------------
 #P B3LYP/6-311+g(d) force
 -------------------------

 ------------------------------
 Gaussian input prepared by ASE
 ------------------------------
 Symbolic Z-matrix:
 Charge =  0 Multiplicity = 2

                         Standard orientation:
 ---------------------------------------------------------------------
 Center     Atomic      Atomic             Coordinates (Angstroms)
 Number     Number       Type             X           Y           Z
 ---------------------------------------------------------------------
      1         11           0       -0.198412   -0.369858    1.949196
      2         11           0       -0.434165   -2.265887   -0.357672
      3         11           0       -3.137501   -1.078740   -0.894076
      4         11           0       -2.242427    1.368349    0.597020
      5         11           0        0.112729    2.701830   -0.699278
      6         11           0        1.481869    0.036248   -0.501828
      7         11           0        4.417908   -0.391943   -0.093361
 ---------------------------------------------------------------------

 SCF Done:  E(UB3LYP) =  -1136.09822807     A.U. after   26 cycles

 The electronic state is 2-A.
 Alpha  occ. eigenvalues --  -38.45530 -38.44321 -38.44119 -38.43973 -38.43863
 Alpha  occ. eigenvalues --  -38.43767 -38.43473  -2.21319  -2.20348  -2.20034
 Alpha  occ. eigenvalues --   -2.19960  -2.19831  -2.19652  -2.19533  -1.15004
 Alpha  occ. eigenvalues --   -1.14961  -1.14947  -1.14084  -1.14027  -1.13948
 Alpha  occ. eigenvalues --   -1.13806  -1.13746  -1.13663  -1.13634  -1.13610
 Alpha  occ. eigenvalues --   -1.13578  -1.13528  -1.13469  -1.13426  -1.13394
 Alpha  occ. eigenvalues --   -1.13276  -1.13260  -1.13197  -1.13182  -1.13099
 Alpha  occ. eigenvalues --   -0.19288  -0.13783  -0.12292  -0.10925
 Alpha virt. eigenvalues --   -0.07547  -0.04400  -0.04113  -0.03534  -0.03048
 Alpha virt. eigenvalues --   -0.02697  -0.01982  -0.00915  -0.00444  -0.00184
 Alpha virt. eigenvalues --   -0.00135   0.00131   0.00377   0.00741   0.00863

  Beta  occ. eigenvalues --  -38.45505 -38.44214 -38.44058 -38.43957 -38.43854
  Beta  occ. eigenvalues --  -38.43767 -38.43464  -2.21272  -2.20152  -2.19941
  Beta  occ. eigenvalues --   -2.19919  -2.19821  -2.19652  -2.19523  -1.14975
  Beta  occ. eigenvalues --   -1.14927  -1.14914  -1.13957  -1.13904  -1.13817
  Beta  occ. eigenvalues --   -1.13748  -1.13685  -1.13646  -1.13579  -1.13556
  Beta  occ. eigenvalues --   -1.13548  -1.13485  -1.13427  -1.13422  -1.13373
  Beta  occ. eigenvalues --   -1.13272  -1.13253  -1.13184  -1.13138  -1.13101
  Beta  occ. eigenvalues --   -0.18641  -0.13275  -0.12084
  Beta virt. eigenvalues --   -0.07406  -0.07096  -0.04166  -0.04019  -0.02975
  Beta virt. eigenvalues --   -0.02757  -0.02137  -0.01294  -0.00767  -0.00249
  Beta virt. eigenvalues --   -0.00055  -0.00011   0.00223   0.00530   0.00789

 Mulliken charges and spin densities:
               1          2
     1  Na  -0.336657  -0.008116
     2  Na   0.360042   0.394235
     3  Na   0.352071   0.001513
     4  Na   0.045877   0.537388
     5  Na   0.903505  -0.094705
     6  Na  -0.841265   0.087509
     7  Na  -0.483573   0.082176
 Sum of Mulliken charges =  -0.00000   1.00000

 Dipole moment (field-independent basis, Debye):
    X=              0.8913    Y=             -0.0917    Z=              0.6480  Tot=              1.1058
 Quadrupole moment (field-independent basis, Debye-Ang):
   XX=            -54.4751   YY=            -71.5862   ZZ=            -69.4737
   XY=             -1.2639   XZ=              0.2446   YZ=             -0.0037

 Normal termination of Gaussian 16 at Mon Nov 13 16:00:03 2023.
