 Gaussian 16, Revision B.01,
 Gaussian 16:  ES64L-G16RevB.01 20-Dec-2017

 -------------------------
 #P B3LYP/6-311+g(d) force
 -------------------------

 ------------------------------
 Gaussian input prepared by ASE
 ------------------------------
 Symbolic Z-matrix:
 Charge =  0 Multiplicity = 2

                         Standard orientation:
 ---------------------------------------------------------------------
 Center     Atomic      Atomic             Coordinates (Angstroms)
 Number     Number       Type             X           Y           Z
 ---------------------------------------------------------------------
      1         11           0        1.291019   -2.024122   -0.468314
      2         11           0       -0.150856   -1.146265    1.979277
      3         11           0       -3.938491   -0.194624   -0.421947
      4         11           0       -0.963312   -0.054212   -0.704053
      5         11           0        1.687366    0.476800   -2.025344
      6         11           0       -0.086720    2.465431    0.695920
      7         11           0        2.160993    0.476992    0.944462
 ---------------------------------------------------------------------

 SCF Done:  E(UB3LYP) =  -1136.09988694     A.U. after   25 cycles

 The electronic state is 2-A.
 Alpha  occ. eigenvalues --  -38.44775 -38.44439 -38.44001 -38.43963 -38.43255
 Alpha  occ. eigenvalues --  -38.43014 -38.42817  -2.20567  -2.20455  -2.20086
 Alpha  occ. eigenvalues --   -2.20010  -2.19180  -2.19102  -2.19016  -1.14274
 Alpha  occ. eigenvalues --   -1.14211  -1.14198  -1.14196  -1.14137  -1.14025
 Alpha  occ. eigenvalues --   -1.13900  -1.13764  -1.13706  -1.13700  -1.13615
 Alpha  occ. eigenvalues --   -1.13571  -1.12944  -1.12883  -1.12841  -1.12766
 Alpha  occ. eigenvalues --   -1.12732  -1.12720  -1.12690  -1.12631  -1.12562
 Alpha  occ. eigenvalues --   -0.20318  -0.13107  -0.12651  -0.11747
 Alpha virt. eigenvalues --   -0.06320  -0.04101  -0.03752  -0.03300  -0.02971
 Alpha virt. eigenvalues --   -0.02958  -0.01792  -0.00661  -0.00411   0.00160
 Alpha virt. eigenvalues --    0.00339   0.00515   0.00550   0.00891   0.01064

  Beta  occ. eigenvalues --  -38.44767 -38.44366 -38.43940 -38.43923 -38.43230
  Beta  occ. eigenvalues --  -38.42992 -38.42789  -2.20554  -2.20324  -2.20019
  Beta  occ. eigenvalues --   -2.19901  -2.19136  -2.19068  -2.18970  -1.14261
  Beta  occ. eigenvalues --   -1.14191  -1.14188  -1.14124  -1.14041  -1.13928
  Beta  occ. eigenvalues --   -1.13827  -1.13689  -1.13659  -1.13636  -1.13535
  Beta  occ. eigenvalues --   -1.13485  -1.12915  -1.12859  -1.12789  -1.12737
  Beta  occ. eigenvalues --   -1.12709  -1.12656  -1.12620  -1.12602  -1.12537
  Beta  occ. eigenvalues --   -0.19406  -0.12775  -0.11557
  Beta virt. eigenvalues --   -0.08418  -0.06073  -0.03754  -0.03453  -0.02862
  Beta virt. eigenvalues --   -0.02513  -0.02004  -0.01678  -0.00416  -0.00307
  Beta virt. eigenvalues --    0.00230   0.00448   0.00548   0.00643   0.00913

 Mulliken charges and spin densities:
               1          2
     1  Na  -0.142437   0.233405
     2  Na   0.037818   0.347836
     3  Na   0.097990  -0.036584
     4  Na  -0.631083   0.039672
     5  Na   0.845570   0.025914
     6  Na  -0.594147   0.132247
     7  Na   0.386289   0.257509
 Sum of Mulliken charges =  -0.00000   1.00000

 Dipole moment (field-independent basis, Debye):
    X=             -0.3056    Y=              0.1618    Z=              0.0875  Tot=              0.3567
 Quadrupole moment (field-independent basis, Debye-Ang):
   XX=            -56.3352   YY=            -73.4553   ZZ=            -63.1353
   XY=             -0.0389   XZ=             -1.4090   YZ=              2.0967

 Normal termination of Gaussian 16 at Mon Nov 13 19:46:32 2023.
