 Gaussian 16, Revision B.01,
 Gaussian 16:  ES64L-G16RevB.01 20-Dec-2017

 -------------------------
 #P B3LYP/6-311+g(d) force
 -------------------------

 ------------------------------
 Gaussian input prepared by ASE
 ------------------------------
 Symbolic Z-matrix:
 Charge =  0 Multiplicity = 2

                         Standard orientation:
 ---------------------------------------------------------------------
 Center     Atomic      Atomic             Coordinates (Angstroms)
 Number     Number       Type             X           Y           Z
 ---------------------------------------------------------------------
      1         11           0        1.213531    1.837918    0.262038
      2         11           0        1.162825   -0.512656    2.111830
      3         11           0        2.988365   -0.521550   -0.271388
      4         11           0        0.765835   -1.879833   -1.771287
      5         11           0       -1.453822    2.626457   -0.841230
      6         11           0       -0.971929   -0.205391    0.022113
      7         11           0       -3.704804   -1.344945    0.487924
 ---------------------------------------------------------------------

 SCF Done:  E(UB3LYP) =  -1136.09954389     A.U. after   25 cycles

 The electronic state is 2-A.
 Alpha  occ. eigenvalues --  -38.44830 -38.44737 -38.44477 -38.44351 -38.43534
 Alpha  occ. eigenvalues --  -38.42966 -38.42697  -2.20829  -2.20525  -2.20468
 Alpha  occ. eigenvalues --   -2.20254  -2.19430  -2.19043  -2.18874  -1.14559
 Alpha  occ. eigenvalues --   -1.14493  -1.14417  -1.14222  -1.14184  -1.14167
 Alpha  occ. eigenvalues --   -1.14156  -1.14149  -1.14089  -1.13953  -1.13853
 Alpha  occ. eigenvalues --   -1.13838  -1.13190  -1.13084  -1.13051  -1.12807
 Alpha  occ. eigenvalues --   -1.12679  -1.12656  -1.12576  -1.12527  -1.12448
 Alpha  occ. eigenvalues --   -0.19553  -0.13462  -0.12126  -0.11493
 Alpha virt. eigenvalues --   -0.06538  -0.04966  -0.03759  -0.03517  -0.02892
 Alpha virt. eigenvalues --   -0.02282  -0.02036  -0.00867  -0.00350   0.00134
 Alpha virt. eigenvalues --    0.00146   0.00290   0.00494   0.00751   0.00946

  Beta  occ. eigenvalues --  -38.44738 -38.44729 -38.44461 -38.44286 -38.43518
  Beta  occ. eigenvalues --  -38.42953 -38.42678  -2.20660  -2.20511  -2.20447
  Beta  occ. eigenvalues --   -2.20136  -2.19400  -2.19027  -2.18847  -1.14454
  Beta  occ. eigenvalues --   -1.14380  -1.14299  -1.14212  -1.14155  -1.14147
  Beta  occ. eigenvalues --   -1.14144  -1.14133  -1.14037  -1.13876  -1.13771
  Beta  occ. eigenvalues --   -1.13757  -1.13169  -1.13066  -1.13025  -1.12799
  Beta  occ. eigenvalues --   -1.12664  -1.12603  -1.12527  -1.12490  -1.12432
  Beta  occ. eigenvalues --   -0.18785  -0.13190  -0.11690
  Beta virt. eigenvalues --   -0.07746  -0.06288  -0.04689  -0.03496  -0.02906
  Beta virt. eigenvalues --   -0.02463  -0.01867  -0.01520  -0.00771  -0.00115
  Beta virt. eigenvalues --    0.00196   0.00204   0.00410   0.00652   0.00803

 Mulliken charges and spin densities:
               1          2
     1  Na   3.005164   0.642334
     2  Na  -0.503100   0.001023
     3  Na   0.484008   0.014698
     4  Na   0.667767   0.241615
     5  Na   0.415193  -0.148639
     6  Na  -3.124545   0.451244
     7  Na  -0.944487  -0.202275
 Sum of Mulliken charges =  -0.00000   1.00000

 Dipole moment (field-independent basis, Debye):
    X=             -0.0082    Y=             -0.3831    Z=              0.0102  Tot=              0.3833
 Quadrupole moment (field-independent basis, Debye-Ang):
   XX=            -53.6572   YY=            -70.9202   ZZ=            -68.0165
   XY=             -0.5229   XZ=              0.0126   YZ=             -1.6710

 Normal termination of Gaussian 16 at Mon Nov 13 18:39:49 2023.
