 Gaussian 16, Revision B.01,
 Gaussian 16:  ES64L-G16RevB.01 20-Dec-2017

 -------------------------
 #P B3LYP/6-311+g(d) force
 -------------------------

 ------------------------------
 Gaussian input prepared by ASE
 ------------------------------
 Symbolic Z-matrix:
 Charge =  0 Multiplicity = 2

                         Standard orientation:
 ---------------------------------------------------------------------
 Center     Atomic      Atomic             Coordinates (Angstroms)
 Number     Number       Type             X           Y           Z
 ---------------------------------------------------------------------
      1         11           0       -0.046256   -0.003472   -1.237073
      2         11           0        1.366502   -1.489033    0.957692
      3         11           0        2.948336   -0.003336   -1.108845
      4         11           0        1.367981    1.491672    0.954493
      5         11           0       -2.222102    1.954017   -0.536670
      6         11           0       -1.186208    0.001086    1.504138
      7         11           0       -2.228253   -1.950934   -0.533734
 ---------------------------------------------------------------------

 SCF Done:  E(UB3LYP) =  -1136.10275946     A.U. after   21 cycles

 The electronic state is 2-A.
 Alpha  occ. eigenvalues --  -38.44413 -38.43418 -38.43415 -38.43382 -38.43368
 Alpha  occ. eigenvalues --  -38.43361 -38.43240  -2.20404  -2.19588  -2.19528
 Alpha  occ. eigenvalues --   -2.19464  -2.19443  -2.19335  -2.19327  -1.14147
 Alpha  occ. eigenvalues --   -1.14053  -1.14029  -1.13567  -1.13400  -1.13305
 Alpha  occ. eigenvalues --   -1.13303  -1.13203  -1.13192  -1.13146  -1.13094
 Alpha  occ. eigenvalues --   -1.13069  -1.13061  -1.13031  -1.12970  -1.12952
 Alpha  occ. eigenvalues --   -1.12950  -1.12944  -1.12924  -1.12919  -1.12901
 Alpha  occ. eigenvalues --   -0.20485  -0.14261  -0.11915  -0.11532
 Alpha virt. eigenvalues --   -0.05620  -0.04736  -0.04242  -0.03116  -0.02474
 Alpha virt. eigenvalues --   -0.02415  -0.01551  -0.00730  -0.00495   0.00316
 Alpha virt. eigenvalues --    0.00601   0.00635   0.00827   0.00893   0.01002

  Beta  occ. eigenvalues --  -38.44379 -38.43410 -38.43407 -38.43331 -38.43324
  Beta  occ. eigenvalues --  -38.43320 -38.43187  -2.20342  -2.19484  -2.19435
  Beta  occ. eigenvalues --   -2.19401  -2.19382  -2.19322  -2.19313  -1.14108
  Beta  occ. eigenvalues --   -1.13997  -1.13987  -1.13499  -1.13329  -1.13255
  Beta  occ. eigenvalues --   -1.13219  -1.13142  -1.13136  -1.13078  -1.13064
  Beta  occ. eigenvalues --   -1.13002  -1.12998  -1.12980  -1.12926  -1.12916
  Beta  occ. eigenvalues --   -1.12913  -1.12911  -1.12905  -1.12890  -1.12878
  Beta  occ. eigenvalues --   -0.19643  -0.13999  -0.11331
  Beta virt. eigenvalues --   -0.07626  -0.05498  -0.04684  -0.03577  -0.02900
  Beta virt. eigenvalues --   -0.01809  -0.01615  -0.01312  -0.00705  -0.00151
  Beta virt. eigenvalues --    0.00352   0.00625   0.00684   0.00897   0.00914

 Mulliken charges and spin densities:
               1          2
     1  Na  -0.925356   0.469663
     2  Na  -0.089198   0.211263
     3  Na   1.045883   0.074541
     4  Na  -0.092045   0.210327
     5  Na  -0.001187   0.008626
     6  Na   0.062015   0.016404
     7  Na  -0.000112   0.009176
 Sum of Mulliken charges =  -0.00000   1.00000

 Dipole moment (field-independent basis, Debye):
    X=              0.2121    Y=              0.0014    Z=             -0.2544  Tot=              0.3312
 Quadrupole moment (field-independent basis, Debye-Ang):
   XX=            -53.3557   YY=            -71.7140   ZZ=            -67.5553
   XY=              0.0032   XZ=             -0.0447   YZ=             -0.0089

 Normal termination of Gaussian 16 at Mon Nov 13 18:58:32 2023.
