 Gaussian 16, Revision B.01,
 Gaussian 16:  ES64L-G16RevB.01 20-Dec-2017

 -------------------------
 #P B3LYP/6-311+g(d) force
 -------------------------

 ------------------------------
 Gaussian input prepared by ASE
 ------------------------------
 Symbolic Z-matrix:
 Charge =  0 Multiplicity = 2

                         Standard orientation:
 ---------------------------------------------------------------------
 Center     Atomic      Atomic             Coordinates (Angstroms)
 Number     Number       Type             X           Y           Z
 ---------------------------------------------------------------------
      1         11           0        0.945642   -1.329187   -0.312112
      2         11           0       -3.381539    0.069312    1.669107
      3         11           0       -3.583127   -1.251329   -1.011362
      4         11           0       -1.324890    0.635150   -0.437597
      5         11           0        0.821098    2.710743   -0.773333
      6         11           0        2.630900    0.894598    0.790622
      7         11           0        3.891917   -1.729286    0.074674
 ---------------------------------------------------------------------

 SCF Done:  E(UB3LYP) =  -1136.10183537     A.U. after   23 cycles

 The electronic state is 2-A.
 Alpha  occ. eigenvalues --  -38.45384 -38.44458 -38.44025 -38.43810 -38.43308
 Alpha  occ. eigenvalues --  -38.43291 -38.42885  -2.21266  -2.20378  -2.20027
 Alpha  occ. eigenvalues --   -2.19810  -2.19418  -2.19199  -2.18795  -1.14985
 Alpha  occ. eigenvalues --   -1.14944  -1.14889  -1.14071  -1.13995  -1.13986
 Alpha  occ. eigenvalues --   -1.13790  -1.13695  -1.13681  -1.13552  -1.13443
 Alpha  occ. eigenvalues --   -1.13417  -1.13099  -1.13086  -1.13057  -1.12860
 Alpha  occ. eigenvalues --   -1.12844  -1.12819  -1.12482  -1.12428  -1.12413
 Alpha  occ. eigenvalues --   -0.18433  -0.15285  -0.11836  -0.10277
 Alpha virt. eigenvalues --   -0.06681  -0.05381  -0.04395  -0.03442  -0.03000
 Alpha virt. eigenvalues --   -0.01950  -0.01720  -0.01524  -0.00575  -0.00109
 Alpha virt. eigenvalues --    0.00008   0.00220   0.00464   0.00531   0.00688

  Beta  occ. eigenvalues --  -38.45384 -38.44391 -38.43996 -38.43758 -38.43284
  Beta  occ. eigenvalues --  -38.43273 -38.42880  -2.21272  -2.20252  -2.19973
  Beta  occ. eigenvalues --   -2.19719  -2.19364  -2.19187  -2.18787  -1.14996
  Beta  occ. eigenvalues --   -1.14935  -1.14862  -1.13988  -1.13913  -1.13897
  Beta  occ. eigenvalues --   -1.13747  -1.13659  -1.13637  -1.13483  -1.13376
  Beta  occ. eigenvalues --   -1.13348  -1.13068  -1.13044  -1.12971  -1.12848
  Beta  occ. eigenvalues --   -1.12824  -1.12812  -1.12469  -1.12424  -1.12402
  Beta  occ. eigenvalues --   -0.17795  -0.14900  -0.11689
  Beta virt. eigenvalues --   -0.06571  -0.06353  -0.05200  -0.03934  -0.03240
  Beta virt. eigenvalues --   -0.02730  -0.01522  -0.01398  -0.01269  -0.00301
  Beta virt. eigenvalues --    0.00032   0.00166   0.00342   0.00650   0.00698

 Mulliken charges and spin densities:
               1          2
     1  Na  -1.499229  -0.119568
     2  Na   0.231253   0.214420
     3  Na   0.735152  -0.339999
     4  Na  -1.794196   0.364625
     5  Na   0.996061   0.270212
     6  Na  -0.133761   0.271906
     7  Na   1.464720   0.338404
 Sum of Mulliken charges =  -0.00000   1.00000

 Dipole moment (field-independent basis, Debye):
    X=             -0.8429    Y=             -0.6205    Z=             -0.5130  Tot=              1.1656
 Quadrupole moment (field-independent basis, Debye-Ang):
   XX=            -60.6200   YY=            -70.1873   ZZ=            -66.6003
   XY=              3.8650   XZ=              3.9256   YZ=              0.9445

 Normal termination of Gaussian 16 at Mon Nov 13 15:37:17 2023.
