 Gaussian 16, Revision B.01,
 Gaussian 16:  ES64L-G16RevB.01 20-Dec-2017

 -------------------------
 #P B3LYP/6-311+g(d) force
 -------------------------

 ------------------------------
 Gaussian input prepared by ASE
 ------------------------------
 Symbolic Z-matrix:
 Charge =  0 Multiplicity = 2

                         Standard orientation:
 ---------------------------------------------------------------------
 Center     Atomic      Atomic             Coordinates (Angstroms)
 Number     Number       Type             X           Y           Z
 ---------------------------------------------------------------------
      1         11           0        0.346201    0.568011   -1.647155
      2         11           0        0.121910   -0.545834    1.730353
      3         11           0        1.792563    1.570185    0.662964
      4         11           0        2.214395   -1.102826   -0.191998
      5         11           0       -2.509873   -0.605042    0.449687
      6         11           0       -0.472011   -1.810441   -0.758169
      7         11           0       -1.493185    1.925947   -0.245681
 ---------------------------------------------------------------------

 SCF Done:  E(UB3LYP) =  -1136.07353250     A.U. after   20 cycles

 The electronic state is 2-A.
 Alpha  occ. eigenvalues --  -38.44461 -38.44325 -38.44155 -38.43907 -38.43844
 Alpha  occ. eigenvalues --  -38.43727 -38.43532  -2.20758  -2.20431  -2.20375
 Alpha  occ. eigenvalues --   -2.20152  -2.20000  -2.19808  -2.19584  -1.14670
 Alpha  occ. eigenvalues --   -1.14541  -1.14434  -1.14431  -1.14211  -1.14206
 Alpha  occ. eigenvalues --   -1.14112  -1.14022  -1.13909  -1.13828  -1.13743
 Alpha  occ. eigenvalues --   -1.13675  -1.13639  -1.13586  -1.13503  -1.13448
 Alpha  occ. eigenvalues --   -1.13425  -1.13322  -1.13255  -1.13198  -1.13143
 Alpha  occ. eigenvalues --   -0.21658  -0.14090  -0.12715  -0.12464
 Alpha virt. eigenvalues --   -0.05275  -0.04356  -0.04036  -0.03829  -0.03154
 Alpha virt. eigenvalues --   -0.03004  -0.01028  -0.00464  -0.00121   0.00327
 Alpha virt. eigenvalues --    0.00803   0.00891   0.01027   0.01098   0.01159

  Beta  occ. eigenvalues --  -38.44374 -38.44313 -38.44071 -38.43870 -38.43828
  Beta  occ. eigenvalues --  -38.43704 -38.43523  -2.20605  -2.20409  -2.20229
  Beta  occ. eigenvalues --   -2.20093  -2.19978  -2.19771  -2.19572  -1.14568
  Beta  occ. eigenvalues --   -1.14462  -1.14374  -1.14332  -1.14161  -1.14125
  Beta  occ. eigenvalues --   -1.14075  -1.13940  -1.13829  -1.13781  -1.13713
  Beta  occ. eigenvalues --   -1.13619  -1.13562  -1.13519  -1.13481  -1.13416
  Beta  occ. eigenvalues --   -1.13365  -1.13302  -1.13231  -1.13181  -1.13126
  Beta  occ. eigenvalues --   -0.20839  -0.13728  -0.12335
  Beta virt. eigenvalues --   -0.08248  -0.05274  -0.04350  -0.03743  -0.03063
  Beta virt. eigenvalues --   -0.02329  -0.01882  -0.00948  -0.00422   0.00036
  Beta virt. eigenvalues --    0.00351   0.00804   0.00885   0.01073   0.01124

 Mulliken charges and spin densities:
               1          2
     1  Na  -0.456944   0.269473
     2  Na  -0.561277   0.471843
     3  Na   0.131887   0.085132
     4  Na   0.275601  -0.113465
     5  Na   0.529839   0.048902
     6  Na   0.327643   0.165299
     7  Na  -0.246749   0.072815
 Sum of Mulliken charges =  -0.00000   1.00000

 Dipole moment (field-independent basis, Debye):
    X=             -0.0061    Y=              0.2793    Z=              0.3516  Tot=              0.4491
 Quadrupole moment (field-independent basis, Debye-Ang):
   XX=            -60.0854   YY=            -70.8420   ZZ=            -67.5358
   XY=             -0.2252   XZ=             -0.1970   YZ=              1.5724

 Normal termination of Gaussian 16 at Mon Nov 13 19:18:00 2023.
