 Gaussian 16, Revision B.01,
 Gaussian 16:  ES64L-G16RevB.01 20-Dec-2017

 -------------------------
 #P B3LYP/6-311+g(d) force
 -------------------------

 ------------------------------
 Gaussian input prepared by ASE
 ------------------------------
 Symbolic Z-matrix:
 Charge =  0 Multiplicity = 2

                         Standard orientation:
 ---------------------------------------------------------------------
 Center     Atomic      Atomic             Coordinates (Angstroms)
 Number     Number       Type             X           Y           Z
 ---------------------------------------------------------------------
      1         11           0        0.995614   -1.092008   -1.350289
      2         11           0       -1.505891    0.038633    1.749703
      3         11           0       -3.363792   -1.467594   -0.049227
      4         11           0       -1.504312    0.571371   -1.205501
      5         11           0        0.393026    2.785328   -0.465342
      6         11           0        1.411906    0.481153    1.173336
      7         11           0        3.573450   -1.316883    0.147320
 ---------------------------------------------------------------------

 SCF Done:  E(UB3LYP) =  -1136.10625654     A.U. after   20 cycles

 The electronic state is 2-A.
 Alpha  occ. eigenvalues --  -38.44292 -38.44288 -38.43963 -38.43920 -38.43550
 Alpha  occ. eigenvalues --  -38.43536 -38.43044  -2.20297  -2.20281  -2.19862
 Alpha  occ. eigenvalues --   -2.19816  -2.19660  -2.19658  -2.18962  -1.14033
 Alpha  occ. eigenvalues --   -1.14026  -1.14008  -1.14006  -1.13893  -1.13876
 Alpha  occ. eigenvalues --   -1.13597  -1.13558  -1.13505  -1.13478  -1.13459
 Alpha  occ. eigenvalues --   -1.13434  -1.13343  -1.13336  -1.13317  -1.13297
 Alpha  occ. eigenvalues --   -1.13244  -1.13220  -1.12642  -1.12608  -1.12571
 Alpha  occ. eigenvalues --   -0.19630  -0.14169  -0.11911  -0.11730
 Alpha virt. eigenvalues --   -0.06411  -0.04569  -0.04268  -0.03316  -0.02824
 Alpha virt. eigenvalues --   -0.02653  -0.01897  -0.01112  -0.00374   0.00155
 Alpha virt. eigenvalues --    0.00280   0.00484   0.00732   0.00768   0.00934

  Beta  occ. eigenvalues --  -38.44242 -38.44218 -38.43964 -38.43921 -38.43504
  Beta  occ. eigenvalues --  -38.43484 -38.43039  -2.20192  -2.20168  -2.19865
  Beta  occ. eigenvalues --   -2.19820  -2.19578  -2.19568  -2.18957  -1.13970
  Beta  occ. eigenvalues --   -1.13938  -1.13935  -1.13924  -1.13809  -1.13807
  Beta  occ. eigenvalues --   -1.13585  -1.13545  -1.13486  -1.13479  -1.13450
  Beta  occ. eigenvalues --   -1.13436  -1.13291  -1.13277  -1.13246  -1.13216
  Beta  occ. eigenvalues --   -1.13182  -1.13165  -1.12631  -1.12604  -1.12552
  Beta  occ. eigenvalues --   -0.18843  -0.14047  -0.11707
  Beta virt. eigenvalues --   -0.07551  -0.06149  -0.04497  -0.03738  -0.03035
  Beta virt. eigenvalues --   -0.02094  -0.01857  -0.01791  -0.01039  -0.00047
  Beta virt. eigenvalues --    0.00182   0.00274   0.00671   0.00827   0.00888

 Mulliken charges and spin densities:
               1          2
     1  Na  -0.226681   0.132965
     2  Na   0.041904   0.230656
     3  Na   0.538092   0.044972
     4  Na  -0.632995   0.349706
     5  Na   0.330062   0.041022
     6  Na  -0.646706   0.204218
     7  Na   0.596324  -0.003539
 Sum of Mulliken charges =  -0.00000   1.00000

 Dipole moment (field-independent basis, Debye):
    X=              0.0827    Y=             -0.0312    Z=             -0.0661  Tot=              0.1104
 Quadrupole moment (field-independent basis, Debye-Ang):
   XX=            -56.5001   YY=            -68.9470   ZZ=            -69.7469
   XY=              1.8544   XZ=              1.1883   YZ=             -0.0647

 Normal termination of Gaussian 16 at Mon Nov 13 16:36:51 2023.
