 Gaussian 16, Revision B.01,
 Gaussian 16:  ES64L-G16RevB.01 20-Dec-2017

 -------------------------
 #P B3LYP/6-311+g(d) force
 -------------------------

 ------------------------------
 Gaussian input prepared by ASE
 ------------------------------
 Symbolic Z-matrix:
 Charge =  0 Multiplicity = 2

                         Standard orientation:
 ---------------------------------------------------------------------
 Center     Atomic      Atomic             Coordinates (Angstroms)
 Number     Number       Type             X           Y           Z
 ---------------------------------------------------------------------
      1         11           0       -0.116098   -0.117571   -1.317043
      2         11           0       -2.470712   -1.877354   -0.687182
      3         11           0       -2.050685    2.142974   -0.902748
      4         11           0       -2.712349    0.296161    1.372092
      5         11           0        0.263462    0.023664    1.657871
      6         11           0        2.386485   -1.183764   -0.069535
      7         11           0        4.699896    0.715890   -0.053456
 ---------------------------------------------------------------------

 SCF Done:  E(UB3LYP) =  -1136.08502082     A.U. after   32 cycles

 The electronic state is 2-A.
 Alpha  occ. eigenvalues --  -38.45912 -38.45039 -38.44893 -38.44384 -38.44133
 Alpha  occ. eigenvalues --  -38.44041 -38.42690  -2.21698  -2.21030  -2.20774
 Alpha  occ. eigenvalues --   -2.20399  -2.20240  -2.20020  -2.18617  -1.15400
 Alpha  occ. eigenvalues --   -1.15345  -1.15330  -1.14780  -1.14738  -1.14594
 Alpha  occ. eigenvalues --   -1.14517  -1.14488  -1.14365  -1.14075  -1.14031
 Alpha  occ. eigenvalues --   -1.13999  -1.13995  -1.13908  -1.13821  -1.13706
 Alpha  occ. eigenvalues --   -1.13660  -1.13601  -1.12318  -1.12271  -1.12224
 Alpha  occ. eigenvalues --   -0.19445  -0.14803  -0.11561  -0.10614
 Alpha virt. eigenvalues --   -0.08326  -0.04709  -0.04403  -0.03401  -0.03145
 Alpha virt. eigenvalues --   -0.02224  -0.02114  -0.01553  -0.00953  -0.00338
 Alpha virt. eigenvalues --   -0.00004   0.00218   0.00266   0.00641   0.00783

  Beta  occ. eigenvalues --  -38.45909 -38.44963 -38.44885 -38.44338 -38.44071
  Beta  occ. eigenvalues --  -38.44035 -38.42668  -2.21692  -2.20894  -2.20764
  Beta  occ. eigenvalues --   -2.20319  -2.20131  -2.20010  -2.18579  -1.15397
  Beta  occ. eigenvalues --   -1.15339  -1.15326  -1.14677  -1.14636  -1.14512
  Beta  occ. eigenvalues --   -1.14497  -1.14461  -1.14351  -1.14005  -1.13977
  Beta  occ. eigenvalues --   -1.13939  -1.13914  -1.13834  -1.13750  -1.13683
  Beta  occ. eigenvalues --   -1.13630  -1.13591  -1.12285  -1.12249  -1.12184
  Beta  occ. eigenvalues --   -0.18693  -0.14623  -0.10440
  Beta virt. eigenvalues --   -0.08209  -0.07344  -0.04640  -0.03811  -0.03319
  Beta virt. eigenvalues --   -0.02678  -0.01591  -0.01473  -0.01370  -0.00629
  Beta virt. eigenvalues --   -0.00285   0.00017   0.00234   0.00427   0.00682

 Mulliken charges and spin densities:
               1          2
     1  Na  -1.584382   0.480520
     2  Na   0.594971  -0.012203
     3  Na   0.298865   0.015973
     4  Na  -0.033302   0.184918
     5  Na  -0.488697   0.243308
     6  Na   1.279183   0.107278
     7  Na  -0.066637  -0.019795
 Sum of Mulliken charges =  -0.00000   1.00000

 Dipole moment (field-independent basis, Debye):
    X=              1.1478    Y=             -0.5166    Z=              0.1580  Tot=              1.2685
 Quadrupole moment (field-independent basis, Debye-Ang):
   XX=            -47.1080   YY=            -76.3014   ZZ=            -71.7931
   XY=              7.2392   XZ=             -0.6848   YZ=             -0.8048

 Normal termination of Gaussian 16 at Mon Nov 13 15:11:52 2023.
