 Gaussian 16, Revision B.01,
 Gaussian 16:  ES64L-G16RevB.01 20-Dec-2017

 -------------------------
 #P B3LYP/6-311+g(d) force
 -------------------------

 ------------------------------
 Gaussian input prepared by ASE
 ------------------------------
 Symbolic Z-matrix:
 Charge =  0 Multiplicity = 2

                         Standard orientation:
 ---------------------------------------------------------------------
 Center     Atomic      Atomic             Coordinates (Angstroms)
 Number     Number       Type             X           Y           Z
 ---------------------------------------------------------------------
      1         11           0        0.530594   -0.771840   -0.401551
      2         11           0       -2.170436   -1.495200   -1.506632
      3         11           0       -0.938704   -0.779385    2.222418
      4         11           0       -2.833739    0.706111    0.425691
      5         11           0       -0.427553    2.050166   -0.769018
      6         11           0        2.362764    1.524435    0.174503
      7         11           0        3.477074   -1.234286   -0.145411
 ---------------------------------------------------------------------

 SCF Done:  E(UB3LYP) =  -1136.10018780     A.U. after   24 cycles

 The electronic state is 2-A.
 Alpha  occ. eigenvalues --  -38.44927 -38.44701 -38.44564 -38.44277 -38.43850
 Alpha  occ. eigenvalues --  -38.43416 -38.42277  -2.20924  -2.20578  -2.20488
 Alpha  occ. eigenvalues --   -2.20203  -2.19829  -2.19604  -2.18267  -1.14648
 Alpha  occ. eigenvalues --   -1.14608  -1.14574  -1.14310  -1.14253  -1.14200
 Alpha  occ. eigenvalues --   -1.14188  -1.14107  -1.14055  -1.13921  -1.13841
 Alpha  occ. eigenvalues --   -1.13780  -1.13605  -1.13465  -1.13456  -1.13299
 Alpha  occ. eigenvalues --   -1.13252  -1.13200  -1.11975  -1.11927  -1.11873
 Alpha  occ. eigenvalues --   -0.19642  -0.14644  -0.11615  -0.11276
 Alpha virt. eigenvalues --   -0.06850  -0.05176  -0.03899  -0.03442  -0.02468
 Alpha virt. eigenvalues --   -0.02449  -0.02318  -0.01000  -0.00318   0.00032
 Alpha virt. eigenvalues --    0.00158   0.00330   0.00423   0.00803   0.00857

  Beta  occ. eigenvalues --  -38.44904 -38.44712 -38.44462 -38.44211 -38.43853
  Beta  occ. eigenvalues --  -38.43389 -38.42269  -2.20889  -2.20599  -2.20301
  Beta  occ. eigenvalues --   -2.20081  -2.19836  -2.19562  -2.18254  -1.14598
  Beta  occ. eigenvalues --   -1.14558  -1.14545  -1.14324  -1.14267  -1.14211
  Beta  occ. eigenvalues --   -1.14065  -1.13978  -1.13924  -1.13835  -1.13763
  Beta  occ. eigenvalues --   -1.13687  -1.13605  -1.13479  -1.13449  -1.13242
  Beta  occ. eigenvalues --   -1.13205  -1.13175  -1.11968  -1.11923  -1.11840
  Beta  occ. eigenvalues --   -0.18888  -0.14452  -0.11113
  Beta virt. eigenvalues --   -0.07433  -0.06634  -0.05057  -0.03293  -0.03155
  Beta virt. eigenvalues --   -0.02413  -0.01741  -0.01534  -0.00837  -0.00091
  Beta virt. eigenvalues --    0.00091   0.00221   0.00365   0.00644   0.00861

 Mulliken charges and spin densities:
               1          2
     1  Na  -0.840651   0.166373
     2  Na   0.101554   0.277564
     3  Na  -0.429789   0.354210
     4  Na   1.154291   0.112496
     5  Na  -0.462714   0.172635
     6  Na   0.337918   0.020755
     7  Na   0.139391  -0.104033
 Sum of Mulliken charges =  -0.00000   1.00000

 Dipole moment (field-independent basis, Debye):
    X=              0.1561    Y=             -0.2649    Z=              0.3398  Tot=              0.4583
 Quadrupole moment (field-independent basis, Debye-Ang):
   XX=            -48.8005   YY=            -75.7320   ZZ=            -69.4445
   XY=             -1.2504   XZ=              1.3151   YZ=              2.1761

 Normal termination of Gaussian 16 at Mon Nov 13 15:16:30 2023.
