 Gaussian 16, Revision B.01,
 Gaussian 16:  ES64L-G16RevB.01 20-Dec-2017

 -------------------------
 #P B3LYP/6-311+g(d) force
 -------------------------

 ------------------------------
 Gaussian input prepared by ASE
 ------------------------------
 Symbolic Z-matrix:
 Charge =  0 Multiplicity = 2

                         Standard orientation:
 ---------------------------------------------------------------------
 Center     Atomic      Atomic             Coordinates (Angstroms)
 Number     Number       Type             X           Y           Z
 ---------------------------------------------------------------------
      1         11           0        0.190503    1.530304   -0.030367
      2         11           0       -1.869049    0.361423   -1.872645
      3         11           0       -3.718136   -0.087261    0.449309
      4         11           0       -1.110308   -0.356576    1.910731
      5         11           0        0.182155   -1.410743   -0.583079
      6         11           0        3.149582   -1.502074   -0.147147
      7         11           0        3.175253    1.464926    0.273198
 ---------------------------------------------------------------------

 SCF Done:  E(UB3LYP) =  -1136.08574878     A.U. after   32 cycles

 The electronic state is 2-A.
 Alpha  occ. eigenvalues --  -38.46468 -38.45138 -38.44767 -38.44295 -38.43835
 Alpha  occ. eigenvalues --  -38.43544 -38.43387  -2.22344  -2.21028  -2.20658
 Alpha  occ. eigenvalues --   -2.20372  -2.19817  -2.19606  -2.19392  -1.16037
 Alpha  occ. eigenvalues --   -1.16012  -1.15967  -1.14745  -1.14707  -1.14645
 Alpha  occ. eigenvalues --   -1.14397  -1.14282  -1.14268  -1.14150  -1.14008
 Alpha  occ. eigenvalues --   -1.13968  -1.13572  -1.13437  -1.13429  -1.13333
 Alpha  occ. eigenvalues --   -1.13245  -1.13211  -1.13068  -1.13017  -1.12968
 Alpha  occ. eigenvalues --   -0.19772  -0.15113  -0.11656  -0.10787
 Alpha virt. eigenvalues --   -0.08101  -0.05095  -0.04173  -0.03621  -0.03185
 Alpha virt. eigenvalues --   -0.02501  -0.01635  -0.01081  -0.00864  -0.00224
 Alpha virt. eigenvalues --    0.00204   0.00297   0.00385   0.00691   0.00842

  Beta  occ. eigenvalues --  -38.46461 -38.45107 -38.44742 -38.44234 -38.43794
  Beta  occ. eigenvalues --  -38.43519 -38.43347  -2.22334  -2.20972  -2.20614
  Beta  occ. eigenvalues --   -2.20264  -2.19743  -2.19565  -2.19321  -1.16010
  Beta  occ. eigenvalues --   -1.15998  -1.15969  -1.14700  -1.14670  -1.14607
  Beta  occ. eigenvalues --   -1.14344  -1.14251  -1.14238  -1.14074  -1.13920
  Beta  occ. eigenvalues --   -1.13899  -1.13522  -1.13384  -1.13371  -1.13280
  Beta  occ. eigenvalues --   -1.13224  -1.13168  -1.13004  -1.12974  -1.12920
  Beta  occ. eigenvalues --   -0.19160  -0.14807  -0.10449
  Beta virt. eigenvalues --   -0.08008  -0.07696  -0.04616  -0.03798  -0.03420
  Beta virt. eigenvalues --   -0.02768  -0.01947  -0.01055  -0.00837  -0.00622
  Beta virt. eigenvalues --   -0.00154   0.00237   0.00386   0.00434   0.00783

 Mulliken charges and spin densities:
               1          2
     1  Na  -1.207184   0.288994
     2  Na   1.890565   0.320347
     3  Na  -0.134221  -0.124765
     4  Na   0.550074   0.328312
     5  Na  -1.147820   0.027240
     6  Na   0.012741   0.185297
     7  Na   0.035844  -0.025425
 Sum of Mulliken charges =  -0.00000   1.00000

 Dipole moment (field-independent basis, Debye):
    X=             -0.2967    Y=              0.1369    Z=              0.0143  Tot=              0.3271
 Quadrupole moment (field-independent basis, Debye-Ang):
   XX=            -39.0661   YY=            -77.9811   ZZ=            -76.2522
   XY=              0.0334   XZ=              2.1990   YZ=              5.4608

 Normal termination of Gaussian 16 at Mon Nov 13 15:55:31 2023.
