 Gaussian 16, Revision B.01,
 Gaussian 16:  ES64L-G16RevB.01 20-Dec-2017

 -------------------------
 #P B3LYP/6-311+g(d) force
 -------------------------

 ------------------------------
 Gaussian input prepared by ASE
 ------------------------------
 Symbolic Z-matrix:
 Charge =  0 Multiplicity = 2

                         Standard orientation:
 ---------------------------------------------------------------------
 Center     Atomic      Atomic             Coordinates (Angstroms)
 Number     Number       Type             X           Y           Z
 ---------------------------------------------------------------------
      1         11           0        0.629477    0.566479   -1.413927
      2         11           0        0.499932    0.793327    1.305545
      3         11           0       -1.821593   -0.595601    1.383314
      4         11           0       -1.539372   -1.050341   -1.251006
      5         11           0       -1.441731    1.798546   -0.279103
      6         11           0        0.709739   -1.606224    0.145175
      7         11           0        2.963548    0.093813    0.110002
 ---------------------------------------------------------------------

 SCF Done:  E(UB3LYP) =  -1136.03520144     A.U. after   25 cycles

 The electronic state is 2-A.
 Alpha  occ. eigenvalues --  -38.44868 -38.44735 -38.44635 -38.44547 -38.44406
 Alpha  occ. eigenvalues --  -38.43432 -38.43390  -2.21323  -2.21012  -2.20932
 Alpha  occ. eigenvalues --   -2.20693  -2.20657  -2.19791  -2.19587  -1.15375
 Alpha  occ. eigenvalues --   -1.15207  -1.15050  -1.15038  -1.14857  -1.14767
 Alpha  occ. eigenvalues --   -1.14550  -1.14501  -1.14447  -1.14374  -1.14349
 Alpha  occ. eigenvalues --   -1.14285  -1.14219  -1.14191  -1.14120  -1.13453
 Alpha  occ. eigenvalues --   -1.13377  -1.13291  -1.13276  -1.13202  -1.13126
 Alpha  occ. eigenvalues --   -0.22364  -0.14497  -0.13194  -0.12075
 Alpha virt. eigenvalues --   -0.05714  -0.04175  -0.03822  -0.03669  -0.02830
 Alpha virt. eigenvalues --   -0.02726  -0.01362  -0.00354  -0.00205   0.00272
 Alpha virt. eigenvalues --    0.00757   0.00986   0.01074   0.01096   0.01107

  Beta  occ. eigenvalues --  -38.44789 -38.44677 -38.44631 -38.44480 -38.44356
  Beta  occ. eigenvalues --  -38.43407 -38.43373  -2.21187  -2.20900  -2.20827
  Beta  occ. eigenvalues --   -2.20688  -2.20570  -2.19756  -2.19563  -1.15306
  Beta  occ. eigenvalues --   -1.15101  -1.14948  -1.14939  -1.14787  -1.14686
  Beta  occ. eigenvalues --   -1.14471  -1.14436  -1.14382  -1.14345  -1.14300
  Beta  occ. eigenvalues --   -1.14249  -1.14170  -1.14120  -1.14039  -1.13436
  Beta  occ. eigenvalues --   -1.13280  -1.13269  -1.13260  -1.13133  -1.13109
  Beta  occ. eigenvalues --   -0.21486  -0.14261  -0.11790
  Beta virt. eigenvalues --   -0.08580  -0.05643  -0.03679  -0.03387  -0.03295
  Beta virt. eigenvalues --   -0.02049  -0.01854  -0.01313  -0.00196  -0.00080
  Beta virt. eigenvalues --    0.00311   0.00820   0.01094   0.01103   0.01141

 Mulliken charges and spin densities:
               1          2
     1  Na  -0.131355   0.277568
     2  Na   0.055541   0.433322
     3  Na   0.033469   0.008206
     4  Na   0.468913   0.086188
     5  Na  -0.452939   0.051160
     6  Na  -0.884225   0.165624
     7  Na   0.910597  -0.022069
 Sum of Mulliken charges =  -0.00000   1.00000

 Dipole moment (field-independent basis, Debye):
    X=              0.1829    Y=             -0.0079    Z=              0.1245  Tot=              0.2214
 Quadrupole moment (field-independent basis, Debye-Ang):
   XX=            -55.5672   YY=            -76.5958   ZZ=            -64.9181
   XY=              0.1721   XZ=             -0.0265   YZ=             -0.6178

 Normal termination of Gaussian 16 at Mon Nov 13 19:23:40 2023.
