 Gaussian 16, Revision B.01,
 Gaussian 16:  ES64L-G16RevB.01 20-Dec-2017

 -------------------------
 #P B3LYP/6-311+g(d) force
 -------------------------

 ------------------------------
 Gaussian input prepared by ASE
 ------------------------------
 Symbolic Z-matrix:
 Charge =  0 Multiplicity = 2

                         Standard orientation:
 ---------------------------------------------------------------------
 Center     Atomic      Atomic             Coordinates (Angstroms)
 Number     Number       Type             X           Y           Z
 ---------------------------------------------------------------------
      1         11           0       -0.018478   -2.000211    0.019186
      2         11           0       -1.311138    1.717867    0.704794
      3         11           0       -2.782502   -0.864439    0.305513
      4         11           0       -0.971782    0.165773   -1.839189
      5         11           0        1.335727    1.716212   -0.703311
      6         11           0        0.993012    0.167751    1.839747
      7         11           0        2.755161   -0.902952   -0.326740
 ---------------------------------------------------------------------

 SCF Done:  E(UB3LYP) =  -1136.10572263     A.U. after   19 cycles

 The electronic state is 2-A.
 Alpha  occ. eigenvalues --  -38.44134 -38.44131 -38.44101 -38.44076 -38.43092
 Alpha  occ. eigenvalues --  -38.43085 -38.42732  -2.20238  -2.20235  -2.20085
 Alpha  occ. eigenvalues --   -2.20060  -2.19186  -2.19166  -2.18808  -1.14013
 Alpha  occ. eigenvalues --   -1.13999  -1.13941  -1.13928  -1.13867  -1.13861
 Alpha  occ. eigenvalues --   -1.13753  -1.13742  -1.13729  -1.13714  -1.13677
 Alpha  occ. eigenvalues --   -1.13658  -1.12972  -1.12835  -1.12825  -1.12812
 Alpha  occ. eigenvalues --   -1.12803  -1.12699  -1.12493  -1.12475  -1.12425
 Alpha  occ. eigenvalues --   -0.20791  -0.14065  -0.12192  -0.12145
 Alpha virt. eigenvalues --   -0.05734  -0.04352  -0.04127  -0.03599  -0.02970
 Alpha virt. eigenvalues --   -0.02912  -0.01406  -0.00392  -0.00242   0.00332
 Alpha virt. eigenvalues --    0.00587   0.00669   0.00959   0.01065   0.01066

  Beta  occ. eigenvalues --  -38.44096 -38.44069 -38.44058 -38.44056 -38.43065
  Beta  occ. eigenvalues --  -38.43058 -38.42717  -2.20104  -2.20102  -2.20074
  Beta  occ. eigenvalues --   -2.20050  -2.19143  -2.19123  -2.18787  -1.13953
  Beta  occ. eigenvalues --   -1.13938  -1.13849  -1.13834  -1.13778  -1.13771
  Beta  occ. eigenvalues --   -1.13730  -1.13725  -1.13708  -1.13699  -1.13628
  Beta  occ. eigenvalues --   -1.13612  -1.12950  -1.12795  -1.12790  -1.12763
  Beta  occ. eigenvalues --   -1.12734  -1.12665  -1.12486  -1.12418  -1.12406
  Beta  occ. eigenvalues --   -0.19946  -0.13861  -0.11852
  Beta virt. eigenvalues --   -0.07966  -0.05603  -0.04355  -0.03509  -0.03349
  Beta virt. eigenvalues --   -0.02153  -0.01853  -0.01336  -0.00355  -0.00024
  Beta virt. eigenvalues --    0.00364   0.00602   0.00686   0.01059   0.01105

 Mulliken charges and spin densities:
               1          2
     1  Na  -0.256587   0.010525
     2  Na   0.034534   0.099228
     3  Na   0.226431   0.069537
     4  Na  -0.138886   0.327325
     5  Na   0.069001   0.096934
     6  Na  -0.111452   0.328622
     7  Na   0.176959   0.067828
 Sum of Mulliken charges =  -0.00000   1.00000

 Dipole moment (field-independent basis, Debye):
    X=             -0.0086    Y=             -0.0871    Z=             -0.0062  Tot=              0.0877
 Quadrupole moment (field-independent basis, Debye-Ang):
   XX=            -55.9840   YY=            -74.4454   ZZ=            -66.3592
   XY=              0.0013   XZ=             -2.3058   YZ=              0.0295

 Normal termination of Gaussian 16 at Mon Nov 13 18:17:30 2023.
