 Gaussian 16, Revision B.01,
 Gaussian 16:  ES64L-G16RevB.01 20-Dec-2017

 -------------------------
 #P B3LYP/6-311+g(d) force
 -------------------------

 ------------------------------
 Gaussian input prepared by ASE
 ------------------------------
 Symbolic Z-matrix:
 Charge =  0 Multiplicity = 2

                         Standard orientation:
 ---------------------------------------------------------------------
 Center     Atomic      Atomic             Coordinates (Angstroms)
 Number     Number       Type             X           Y           Z
 ---------------------------------------------------------------------
      1         11           0        0.001257   -0.000844    1.209372
      2         11           0       -1.472389   -1.465847   -0.955540
      3         11           0       -2.997640   -0.064851    1.210534
      4         11           0       -1.532841    1.534336   -0.858167
      5         11           0        1.470947    1.468271   -0.953527
      6         11           0        1.530716   -1.533159   -0.861328
      7         11           0        2.999950    0.062094    1.208655
 ---------------------------------------------------------------------

 SCF Done:  E(UB3LYP) =  -1136.09284226     A.U. after   22 cycles

 The electronic state is 2-A.
 Alpha  occ. eigenvalues --  -38.44964 -38.44964 -38.43830 -38.43220 -38.43216
 Alpha  occ. eigenvalues --  -38.43183 -38.43181  -2.20955  -2.20951  -2.20102
 Alpha  occ. eigenvalues --   -2.19302  -2.19297  -2.19257  -2.19251  -1.14702
 Alpha  occ. eigenvalues --   -1.14662  -1.14610  -1.14608  -1.14557  -1.14556
 Alpha  occ. eigenvalues --   -1.13898  -1.13792  -1.13693  -1.13115  -1.13066
 Alpha  occ. eigenvalues --   -1.13060  -1.13060  -1.12940  -1.12924  -1.12896
 Alpha  occ. eigenvalues --   -1.12890  -1.12827  -1.12825  -1.12811  -1.12763
 Alpha  occ. eigenvalues --   -0.20691  -0.15151  -0.11959  -0.11202
 Alpha virt. eigenvalues --   -0.06380  -0.05083  -0.04342  -0.03231  -0.02309
 Alpha virt. eigenvalues --   -0.02142  -0.02137  -0.00720  -0.00313   0.00257
 Alpha virt. eigenvalues --    0.00354   0.00510   0.00850   0.00873   0.00885

  Beta  occ. eigenvalues --  -38.44924 -38.44924 -38.43787 -38.43192 -38.43188
  Beta  occ. eigenvalues --  -38.43157 -38.43156  -2.20880  -2.20877  -2.20031
  Beta  occ. eigenvalues --   -2.19255  -2.19251  -2.19216  -2.19209  -1.14651
  Beta  occ. eigenvalues --   -1.14617  -1.14554  -1.14546  -1.14508  -1.14508
  Beta  occ. eigenvalues --   -1.13814  -1.13735  -1.13656  -1.13066  -1.13036
  Beta  occ. eigenvalues --   -1.13032  -1.13019  -1.12887  -1.12873  -1.12864
  Beta  occ. eigenvalues --   -1.12852  -1.12781  -1.12768  -1.12752  -1.12743
  Beta  occ. eigenvalues --   -0.19877  -0.14861  -0.10931
  Beta virt. eigenvalues --   -0.07889  -0.06203  -0.04339  -0.04268  -0.02936
  Beta virt. eigenvalues --   -0.01963  -0.01727  -0.01325  -0.00307  -0.00300
  Beta virt. eigenvalues --    0.00284   0.00492   0.00622   0.00831   0.00881

 Mulliken charges and spin densities:
               1          2
     1  Na  -1.219686   0.051087
     2  Na  -0.215481   0.240382
     3  Na   0.906894   0.137439
     4  Na  -0.082619   0.096771
     5  Na  -0.218316   0.240626
     6  Na  -0.080023   0.097034
     7  Na   0.909231   0.136662
 Sum of Mulliken charges =  -0.00000   1.00000

 Dipole moment (field-independent basis, Debye):
    X=              0.0022    Y=             -0.0002    Z=              0.4366  Tot=              0.4366
 Quadrupole moment (field-independent basis, Debye-Ang):
   XX=            -48.1362   YY=            -80.0629   ZZ=            -65.8053
   XY=              0.0981   XZ=              0.0017   YZ=             -0.0044

 Normal termination of Gaussian 16 at Mon Nov 13 18:06:32 2023.
