 Gaussian 16, Revision B.01,
 Gaussian 16:  ES64L-G16RevB.01 20-Dec-2017

 -------------------------
 #P B3LYP/6-311+g(d) force
 -------------------------

 ------------------------------
 Gaussian input prepared by ASE
 ------------------------------
 Symbolic Z-matrix:
 Charge =  0 Multiplicity = 2

                         Standard orientation:
 ---------------------------------------------------------------------
 Center     Atomic      Atomic             Coordinates (Angstroms)
 Number     Number       Type             X           Y           Z
 ---------------------------------------------------------------------
      1         11           0        1.126240   -1.498749   -0.536187
      2         11           0        4.080049   -1.037638   -0.311535
      3         11           0        2.162539    0.916780    0.906176
      4         11           0        0.022874    2.970281    0.443858
      5         11           0       -2.583777    1.973904   -0.655144
      6         11           0       -1.769826   -0.890361   -1.043362
      7         11           0       -3.038099   -2.434217    1.196194
 ---------------------------------------------------------------------

 SCF Done:  E(UB3LYP) =  -1136.10136882     A.U. after   22 cycles

 The electronic state is 2-A.
 Alpha  occ. eigenvalues --  -38.45311 -38.45058 -38.44287 -38.44068 -38.43937
 Alpha  occ. eigenvalues --  -38.43735 -38.43132  -2.21207  -2.21003  -2.20119
 Alpha  occ. eigenvalues --   -2.19967  -2.19933  -2.19701  -2.19028  -1.14952
 Alpha  occ. eigenvalues --   -1.14884  -1.14833  -1.14711  -1.14665  -1.14589
 Alpha  occ. eigenvalues --   -1.13821  -1.13750  -1.13740  -1.13698  -1.13637
 Alpha  occ. eigenvalues --   -1.13622  -1.13587  -1.13586  -1.13554  -1.13407
 Alpha  occ. eigenvalues --   -1.13322  -1.13288  -1.12716  -1.12670  -1.12659
 Alpha  occ. eigenvalues --   -0.18118  -0.14747  -0.12858  -0.10101
 Alpha virt. eigenvalues --   -0.07228  -0.05145  -0.04685  -0.03548  -0.03077
 Alpha virt. eigenvalues --   -0.02411  -0.01667  -0.01250  -0.00672  -0.00467
 Alpha virt. eigenvalues --   -0.00023   0.00086   0.00500   0.00565   0.00646

  Beta  occ. eigenvalues --  -38.45298 -38.45051 -38.44215 -38.44027 -38.43888
  Beta  occ. eigenvalues --  -38.43727 -38.43115  -2.21185  -2.20991  -2.19984
  Beta  occ. eigenvalues --   -2.19892  -2.19846  -2.19691  -2.19004  -1.14941
  Beta  occ. eigenvalues --   -1.14860  -1.14818  -1.14695  -1.14656  -1.14577
  Beta  occ. eigenvalues --   -1.13737  -1.13659  -1.13652  -1.13642  -1.13594
  Beta  occ. eigenvalues --   -1.13567  -1.13530  -1.13513  -1.13489  -1.13403
  Beta  occ. eigenvalues --   -1.13312  -1.13238  -1.12678  -1.12658  -1.12626
  Beta  occ. eigenvalues --   -0.17763  -0.14317  -0.12322
  Beta virt. eigenvalues --   -0.06940  -0.06729  -0.04818  -0.04420  -0.03269
  Beta virt. eigenvalues --   -0.02809  -0.01984  -0.01407  -0.00903  -0.00495
  Beta virt. eigenvalues --   -0.00178   0.00103   0.00281   0.00665   0.00714

 Mulliken charges and spin densities:
               1          2
     1  Na  -0.786803   0.036822
     2  Na   1.192723   0.016780
     3  Na  -0.749804   0.268875
     4  Na   0.272731  -0.141122
     5  Na  -0.517199   0.252690
     6  Na   0.532071   0.332178
     7  Na   0.056280   0.233777
 Sum of Mulliken charges =  -0.00000   1.00000

 Dipole moment (field-independent basis, Debye):
    X=              1.3807    Y=             -0.5945    Z=              0.0665  Tot=              1.5047
 Quadrupole moment (field-independent basis, Debye-Ang):
   XX=            -50.8579   YY=            -73.7273   ZZ=            -72.4787
   XY=             -4.7132   XZ=             -2.6335   YZ=             -1.0381

 Normal termination of Gaussian 16 at Mon Nov 13 14:52:26 2023.
