 Gaussian 16, Revision B.01,
 Gaussian 16:  ES64L-G16RevB.01 20-Dec-2017

 -------------------------
 #P B3LYP/6-311+g(d) force
 -------------------------

 ------------------------------
 Gaussian input prepared by ASE
 ------------------------------
 Symbolic Z-matrix:
 Charge =  0 Multiplicity = 2

                         Standard orientation:
 ---------------------------------------------------------------------
 Center     Atomic      Atomic             Coordinates (Angstroms)
 Number     Number       Type             X           Y           Z
 ---------------------------------------------------------------------
      1         11           0       -0.774484    1.126213    1.161348
      2         11           0        3.447331   -1.342607    0.009810
      3         11           0        0.212154    3.488249   -0.403152
      4         11           0        1.508312    0.810013   -0.755785
      5         11           0        0.581148   -1.535615    0.863365
      6         11           0       -1.713561   -2.502242   -0.818067
      7         11           0       -3.260899   -0.044011   -0.057519
 ---------------------------------------------------------------------

 SCF Done:  E(UB3LYP) =  -1136.10214543     A.U. after   21 cycles

 The electronic state is 2-A.
 Alpha  occ. eigenvalues --  -38.45185 -38.44801 -38.44051 -38.43728 -38.43588
 Alpha  occ. eigenvalues --  -38.43536 -38.42967  -2.21059  -2.20682  -2.19950
 Alpha  occ. eigenvalues --   -2.19671  -2.19632  -2.19602  -2.19065  -1.14762
 Alpha  occ. eigenvalues --   -1.14734  -1.14685  -1.14398  -1.14356  -1.14301
 Alpha  occ. eigenvalues --   -1.13683  -1.13591  -1.13566  -1.13518  -1.13445
 Alpha  occ. eigenvalues --   -1.13330  -1.13293  -1.13274  -1.13257  -1.13243
 Alpha  occ. eigenvalues --   -1.13212  -1.13128  -1.12748  -1.12691  -1.12645
 Alpha  occ. eigenvalues --   -0.19092  -0.13912  -0.13250  -0.09912
 Alpha virt. eigenvalues --   -0.06723  -0.05401  -0.04463  -0.03210  -0.03007
 Alpha virt. eigenvalues --   -0.02172  -0.01411  -0.01128  -0.00433  -0.00239
 Alpha virt. eigenvalues --    0.00111   0.00219   0.00483   0.00668   0.00879

  Beta  occ. eigenvalues --  -38.45174 -38.44799 -38.44014 -38.43709 -38.43547
  Beta  occ. eigenvalues --  -38.43512 -38.42906  -2.21045  -2.20681  -2.19882
  Beta  occ. eigenvalues --   -2.19604  -2.19597  -2.19561  -2.18956  -1.14732
  Beta  occ. eigenvalues --   -1.14717  -1.14672  -1.14399  -1.14347  -1.14296
  Beta  occ. eigenvalues --   -1.13630  -1.13546  -1.13518  -1.13464  -1.13420
  Beta  occ. eigenvalues --   -1.13276  -1.13239  -1.13233  -1.13216  -1.13204
  Beta  occ. eigenvalues --   -1.13174  -1.13094  -1.12674  -1.12626  -1.12546
  Beta  occ. eigenvalues --   -0.18480  -0.13563  -0.13001
  Beta virt. eigenvalues --   -0.06594  -0.06238  -0.05247  -0.04211  -0.02537
  Beta virt. eigenvalues --   -0.02478  -0.02130  -0.01269  -0.00587  -0.00354
  Beta virt. eigenvalues --   -0.00041   0.00278   0.00355   0.00569   0.00809

 Mulliken charges and spin densities:
               1          2
     1  Na  -0.385003   0.299135
     2  Na   0.749873  -0.093163
     3  Na   0.545981   0.047678
     4  Na  -1.025618   0.178532
     5  Na  -0.203070   0.342581
     6  Na   0.072578   0.190791
     7  Na   0.245260   0.034447
 Sum of Mulliken charges =  -0.00000   1.00000

 Dipole moment (field-independent basis, Debye):
    X=              0.1484    Y=             -0.0361    Z=              0.2040  Tot=              0.2548
 Quadrupole moment (field-independent basis, Debye-Ang):
   XX=            -54.9374   YY=            -62.5967   ZZ=            -76.2156
   XY=             -6.8426   XZ=              0.0554   YZ=             -0.4552

 Normal termination of Gaussian 16 at Mon Nov 13 16:14:51 2023.
