 Gaussian 16, Revision B.01,
 Gaussian 16:  ES64L-G16RevB.01 20-Dec-2017

 -------------------------
 #P B3LYP/6-311+g(d) force
 -------------------------

 ------------------------------
 Gaussian input prepared by ASE
 ------------------------------
 Symbolic Z-matrix:
 Charge =  0 Multiplicity = 2

                         Standard orientation:
 ---------------------------------------------------------------------
 Center     Atomic      Atomic             Coordinates (Angstroms)
 Number     Number       Type             X           Y           Z
 ---------------------------------------------------------------------
      1         11           0       -0.081354   -2.866833    0.263293
      2         11           0       -0.840552    0.679408    2.847442
      3         11           0        4.056668    0.716478    0.005564
      4         11           0        1.884230   -1.045505   -1.064500
      5         11           0       -0.737184    2.922788   -0.941852
      6         11           0       -0.735881    0.040961   -0.082588
      7         11           0       -3.545927   -0.447297   -1.027358
 ---------------------------------------------------------------------

 SCF Done:  E(UB3LYP) =  -1136.09611879     A.U. after   24 cycles

 The electronic state is 2-A.
 Alpha  occ. eigenvalues --  -38.45714 -38.45104 -38.44698 -38.44229 -38.43268
 Alpha  occ. eigenvalues --  -38.43165 -38.42698  -2.21511  -2.20942  -2.20474
 Alpha  occ. eigenvalues --   -2.20020  -2.19237  -2.19061  -2.18888  -1.15200
 Alpha  occ. eigenvalues --   -1.15152  -1.15104  -1.14627  -1.14550  -1.14519
 Alpha  occ. eigenvalues --   -1.14188  -1.14128  -1.14107  -1.13751  -1.13662
 Alpha  occ. eigenvalues --   -1.13633  -1.13042  -1.12922  -1.12871  -1.12779
 Alpha  occ. eigenvalues --   -1.12681  -1.12659  -1.12607  -1.12551  -1.12452
 Alpha  occ. eigenvalues --   -0.17993  -0.13010  -0.11617  -0.11381
 Alpha virt. eigenvalues --   -0.07160  -0.04471  -0.04017  -0.03226  -0.03091
 Alpha virt. eigenvalues --   -0.02440  -0.02325  -0.00953  -0.00586  -0.00442
 Alpha virt. eigenvalues --    0.00059   0.00086   0.00523   0.00627   0.00944

  Beta  occ. eigenvalues --  -38.45656 -38.44971 -38.44716 -38.44224 -38.43262
  Beta  occ. eigenvalues --  -38.43167 -38.42675  -2.21403  -2.20696  -2.20507
  Beta  occ. eigenvalues --   -2.20012  -2.19225  -2.19067  -2.18860  -1.15130
  Beta  occ. eigenvalues --   -1.15074  -1.15029  -1.14459  -1.14383  -1.14348
  Beta  occ. eigenvalues --   -1.14210  -1.14150  -1.14129  -1.13748  -1.13649
  Beta  occ. eigenvalues --   -1.13625  -1.13042  -1.12914  -1.12863  -1.12782
  Beta  occ. eigenvalues --   -1.12672  -1.12661  -1.12541  -1.12495  -1.12447
  Beta  occ. eigenvalues --   -0.17314  -0.12775  -0.11428
  Beta virt. eigenvalues --   -0.07410  -0.06829  -0.04398  -0.03683  -0.02749
  Beta virt. eigenvalues --   -0.02633  -0.01961  -0.01710  -0.00942  -0.00405
  Beta virt. eigenvalues --   -0.00221   0.00092   0.00178   0.00567   0.00668

 Mulliken charges and spin densities:
               1          2
     1  Na   0.435416  -0.002969
     2  Na   0.105728   0.588150
     3  Na   0.164320  -0.078406
     4  Na  -0.074246  -0.059979
     5  Na   0.503973   0.072172
     6  Na  -1.242155   0.296864
     7  Na   0.106964   0.184168
 Sum of Mulliken charges =  -0.00000   1.00000

 Dipole moment (field-independent basis, Debye):
    X=             -0.7509    Y=              0.3178    Z=              0.5578  Tot=              0.9879
 Quadrupole moment (field-independent basis, Debye-Ang):
   XX=            -55.2340   YY=            -67.6780   ZZ=            -67.8929
   XY=              3.5234   XZ=              3.6781   YZ=             -0.5050

 Normal termination of Gaussian 16 at Mon Nov 13 18:31:46 2023.
