 Gaussian 16, Revision B.01,
 Gaussian 16:  ES64L-G16RevB.01 20-Dec-2017

 -------------------------
 #P B3LYP/6-311+g(d) force
 -------------------------

 ------------------------------
 Gaussian input prepared by ASE
 ------------------------------
 Symbolic Z-matrix:
 Charge =  0 Multiplicity = 2

                         Standard orientation:
 ---------------------------------------------------------------------
 Center     Atomic      Atomic             Coordinates (Angstroms)
 Number     Number       Type             X           Y           Z
 ---------------------------------------------------------------------
      1         11           0        0.661892   -1.258108    1.363029
      2         11           0        0.215402   -1.785140   -1.557850
      3         11           0        2.736434   -0.453283   -0.639403
      4         11           0        1.497588    1.614085    1.137419
      5         11           0       -0.712020    2.718841   -0.567391
      6         11           0       -2.076278    0.134984   -1.258705
      7         11           0       -2.323018   -0.971379    1.522902
 ---------------------------------------------------------------------

 SCF Done:  E(UB3LYP) =  -1136.11002615     A.U. after   21 cycles

 The electronic state is 2-A.
 Alpha  occ. eigenvalues --  -38.44656 -38.44095 -38.43992 -38.43841 -38.43800
 Alpha  occ. eigenvalues --  -38.43493 -38.43358  -2.20562  -2.20078  -2.19987
 Alpha  occ. eigenvalues --   -2.19936  -2.19786  -2.19470  -2.19242  -1.14286
 Alpha  occ. eigenvalues --   -1.14239  -1.14151  -1.13917  -1.13816  -1.13728
 Alpha  occ. eigenvalues --   -1.13720  -1.13680  -1.13612  -1.13559  -1.13518
 Alpha  occ. eigenvalues --   -1.13492  -1.13463  -1.13430  -1.13387  -1.13174
 Alpha  occ. eigenvalues --   -1.13125  -1.13099  -1.12901  -1.12860  -1.12850
 Alpha  occ. eigenvalues --   -0.19667  -0.13559  -0.12420  -0.12289
 Alpha virt. eigenvalues --   -0.05260  -0.04745  -0.04410  -0.04065  -0.03226
 Alpha virt. eigenvalues --   -0.03195  -0.01153  -0.00370  -0.00320   0.00365
 Alpha virt. eigenvalues --    0.00559   0.00573   0.00740   0.00861   0.01016

  Beta  occ. eigenvalues --  -38.44601 -38.44082 -38.43936 -38.43787 -38.43770
  Beta  occ. eigenvalues --  -38.43476 -38.43350  -2.20464  -2.20057  -2.19888
  Beta  occ. eigenvalues --   -2.19843  -2.19734  -2.19440  -2.19230  -1.14202
  Beta  occ. eigenvalues --   -1.14173  -1.14085  -1.13884  -1.13773  -1.13693
  Beta  occ. eigenvalues --   -1.13670  -1.13616  -1.13553  -1.13493  -1.13451
  Beta  occ. eigenvalues --   -1.13427  -1.13414  -1.13374  -1.13347  -1.13158
  Beta  occ. eigenvalues --   -1.13099  -1.13072  -1.12885  -1.12848  -1.12842
  Beta  occ. eigenvalues --   -0.18920  -0.13324  -0.12219
  Beta virt. eigenvalues --   -0.08150  -0.05163  -0.04384  -0.04125  -0.03636
  Beta virt. eigenvalues --   -0.02645  -0.02146  -0.01041  -0.00345  -0.00073
  Beta virt. eigenvalues --    0.00421   0.00614   0.00705   0.00784   0.00887

 Mulliken charges and spin densities:
               1          2
     1  Na  -0.389582   0.175876
     2  Na  -0.390008   0.433572
     3  Na   0.761423   0.072163
     4  Na   0.062280   0.147689
     5  Na  -0.324752  -0.027334
     6  Na   0.163641   0.145671
     7  Na   0.116997   0.052362
 Sum of Mulliken charges =  -0.00000   1.00000

 Dipole moment (field-independent basis, Debye):
    X=             -0.0887    Y=             -0.2821    Z=             -0.0186  Tot=              0.2963
 Quadrupole moment (field-independent basis, Debye-Ang):
   XX=            -61.4773   YY=            -71.7500   ZZ=            -65.4338
   XY=              0.5649   XZ=             -2.4691   YZ=             -0.2709

 Normal termination of Gaussian 16 at Mon Nov 13 16:02:48 2023.
