 Gaussian 16, Revision B.01,
 Gaussian 16:  ES64L-G16RevB.01 20-Dec-2017

 -------------------------
 #P B3LYP/6-311+g(d) force
 -------------------------

 ------------------------------
 Gaussian input prepared by ASE
 ------------------------------
 Symbolic Z-matrix:
 Charge =  0 Multiplicity = 2

                         Standard orientation:
 ---------------------------------------------------------------------
 Center     Atomic      Atomic             Coordinates (Angstroms)
 Number     Number       Type             X           Y           Z
 ---------------------------------------------------------------------
      1         11           0        1.737207   -0.134381    1.426876
      2         11           0       -1.032817    0.234183    1.532965
      3         11           0       -3.264738    0.018552   -0.313264
      4         11           0       -0.602122   -0.193608   -1.461446
      5         11           0        0.398934   -2.194139    0.174729
      6         11           0        2.165517   -0.039883   -1.310803
      7         11           0        0.598019    2.309277   -0.049056
 ---------------------------------------------------------------------

 SCF Done:  E(UB3LYP) =  -1136.08511374     A.U. after   23 cycles

 The electronic state is 2-A.
 Alpha  occ. eigenvalues --  -38.44600 -38.44432 -38.44393 -38.44012 -38.43929
 Alpha  occ. eigenvalues --  -38.42769 -38.42362  -2.20654  -2.20519  -2.20514
 Alpha  occ. eigenvalues --   -2.20285  -2.20120  -2.18882  -2.18393  -1.14557
 Alpha  occ. eigenvalues --   -1.14533  -1.14442  -1.14294  -1.14252  -1.14219
 Alpha  occ. eigenvalues --   -1.14093  -1.14058  -1.14027  -1.13995  -1.13885
 Alpha  occ. eigenvalues --   -1.13804  -1.13757  -1.13697  -1.13676  -1.12597
 Alpha  occ. eigenvalues --   -1.12540  -1.12425  -1.12113  -1.12053  -1.11994
 Alpha  occ. eigenvalues --   -0.21195  -0.13816  -0.12785  -0.12015
 Alpha virt. eigenvalues --   -0.05841  -0.04135  -0.03744  -0.03402  -0.03081
 Alpha virt. eigenvalues --   -0.02919  -0.01495  -0.00436  -0.00292   0.00294
 Alpha virt. eigenvalues --    0.00599   0.00735   0.00993   0.01016   0.01055

  Beta  occ. eigenvalues --  -38.44595 -38.44369 -38.44345 -38.43942 -38.43863
  Beta  occ. eigenvalues --  -38.42754 -38.42353  -2.20547  -2.20506  -2.20433
  Beta  occ. eigenvalues --   -2.20163  -2.20004  -2.18862  -2.18382  -1.14500
  Beta  occ. eigenvalues --   -1.14426  -1.14357  -1.14264  -1.14196  -1.14172
  Beta  occ. eigenvalues --   -1.14088  -1.13996  -1.13956  -1.13928  -1.13806
  Beta  occ. eigenvalues --   -1.13718  -1.13675  -1.13597  -1.13595  -1.12588
  Beta  occ. eigenvalues --   -1.12482  -1.12405  -1.12111  -1.12000  -1.11994
  Beta  occ. eigenvalues --   -0.20356  -0.13664  -0.11674
  Beta virt. eigenvalues --   -0.08333  -0.05766  -0.03515  -0.03451  -0.03334
  Beta virt. eigenvalues --   -0.02143  -0.02043  -0.01407  -0.00275  -0.00135
  Beta virt. eigenvalues --    0.00322   0.00672   0.00895   0.00969   0.01030

 Mulliken charges and spin densities:
               1          2
     1  Na   0.818850   0.177957
     2  Na   0.207139   0.098696
     3  Na  -0.350158   0.067689
     4  Na   0.290448   0.323012
     5  Na  -0.922536   0.152684
     6  Na   0.911087  -0.000711
     7  Na  -0.954831   0.180673
 Sum of Mulliken charges =  -0.00000   1.00000

 Dipole moment (field-independent basis, Debye):
    X=             -0.4765    Y=              0.1543    Z=             -0.1325  Tot=              0.5181
 Quadrupole moment (field-independent basis, Debye-Ang):
   XX=            -56.0339   YY=            -74.0594   ZZ=            -65.3567
   XY=             -0.0041   XZ=             -0.0783   YZ=             -0.6867

 Normal termination of Gaussian 16 at Mon Nov 13 19:34:34 2023.
