 Gaussian 16, Revision B.01,
 Gaussian 16:  ES64L-G16RevB.01 20-Dec-2017

 -------------------------
 #P B3LYP/6-311+g(d) force
 -------------------------

 ------------------------------
 Gaussian input prepared by ASE
 ------------------------------
 Symbolic Z-matrix:
 Charge =  0 Multiplicity = 2

                         Standard orientation:
 ---------------------------------------------------------------------
 Center     Atomic      Atomic             Coordinates (Angstroms)
 Number     Number       Type             X           Y           Z
 ---------------------------------------------------------------------
      1         11           0        0.754539   -0.679099    1.438047
      2         11           0        3.652634   -0.435489    0.696056
      3         11           0       -0.663728    3.989415    0.055338
      4         11           0       -0.127635    1.157676   -0.769263
      5         11           0        1.621647   -1.202976   -1.378002
      6         11           0       -1.244576   -1.618609   -0.590447
      7         11           0       -3.992880   -1.210919    0.548271
 ---------------------------------------------------------------------

 SCF Done:  E(UB3LYP) =  -1136.09278629     A.U. after   28 cycles

 The electronic state is 2-A.
 Alpha  occ. eigenvalues --  -38.45605 -38.44891 -38.44739 -38.44298 -38.43316
 Alpha  occ. eigenvalues --  -38.43141 -38.42778  -2.21647  -2.20704  -2.20648
 Alpha  occ. eigenvalues --   -2.20406  -2.19394  -2.18945  -2.18848  -1.15408
 Alpha  occ. eigenvalues --   -1.15300  -1.15273  -1.14390  -1.14363  -1.14334
 Alpha  occ. eigenvalues --   -1.14326  -1.14307  -1.14254  -1.14132  -1.14039
 Alpha  occ. eigenvalues --   -1.13980  -1.13136  -1.13045  -1.13017  -1.12715
 Alpha  occ. eigenvalues --   -1.12591  -1.12589  -1.12530  -1.12454  -1.12423
 Alpha  occ. eigenvalues --   -0.19666  -0.13843  -0.11770  -0.11304
 Alpha virt. eigenvalues --   -0.07204  -0.05342  -0.03980  -0.03134  -0.02747
 Alpha virt. eigenvalues --   -0.02301  -0.01946  -0.01222  -0.00817  -0.00120
 Alpha virt. eigenvalues --   -0.00055   0.00079   0.00484   0.00668   0.00716

  Beta  occ. eigenvalues --  -38.45576 -38.44842 -38.44700 -38.44234 -38.43286
  Beta  occ. eigenvalues --  -38.43144 -38.42749  -2.21598  -2.20613  -2.20578
  Beta  occ. eigenvalues --   -2.20297  -2.19352  -2.18950  -2.18803  -1.15351
  Beta  occ. eigenvalues --   -1.15262  -1.15239  -1.14332  -1.14319  -1.14270
  Beta  occ. eigenvalues --   -1.14263  -1.14242  -1.14206  -1.14045  -1.13970
  Beta  occ. eigenvalues --   -1.13876  -1.13103  -1.13027  -1.12915  -1.12702
  Beta  occ. eigenvalues --   -1.12594  -1.12590  -1.12510  -1.12432  -1.12360
  Beta  occ. eigenvalues --   -0.18906  -0.13335  -0.11686
  Beta virt. eigenvalues --   -0.07453  -0.06831  -0.05153  -0.03480  -0.02969
  Beta virt. eigenvalues --   -0.02434  -0.01752  -0.01577  -0.00934  -0.00544
  Beta virt. eigenvalues --   -0.00064   0.00009   0.00315   0.00633   0.00738

 Mulliken charges and spin densities:
               1          2
     1  Na  -0.715095   0.451501
     2  Na   0.381876   0.066690
     3  Na  -0.149045  -0.161729
     4  Na  -1.328424   0.352018
     5  Na   1.840924  -0.144597
     6  Na   0.111336   0.267048
     7  Na  -0.141571   0.169070
 Sum of Mulliken charges =  -0.00000   1.00000

 Dipole moment (field-independent basis, Debye):
    X=              0.5814    Y=             -0.7118    Z=              0.2592  Tot=              0.9549
 Quadrupole moment (field-independent basis, Debye-Ang):
   XX=            -52.9039   YY=            -72.0132   ZZ=            -69.4416
   XY=             -1.2376   XZ=             -3.0773   YZ=              2.4308

 Normal termination of Gaussian 16 at Mon Nov 13 19:24:51 2023.
