 Gaussian 16, Revision B.01,
 Gaussian 16:  ES64L-G16RevB.01 20-Dec-2017

 -------------------------
 #P B3LYP/6-311+g(d) force
 -------------------------

 ------------------------------
 Gaussian input prepared by ASE
 ------------------------------
 Symbolic Z-matrix:
 Charge =  0 Multiplicity = 2

                         Standard orientation:
 ---------------------------------------------------------------------
 Center     Atomic      Atomic             Coordinates (Angstroms)
 Number     Number       Type             X           Y           Z
 ---------------------------------------------------------------------
      1         11           0        0.522946   -0.100075   -1.348729
      2         11           0        0.554622    2.638204   -0.133067
      3         11           0        3.106511   -0.934819   -0.089376
      4         11           0        0.928730    0.228372    1.604702
      5         11           0       -2.057207    1.341827   -0.802663
      6         11           0       -1.949576   -0.630059    1.463030
      7         11           0       -1.106028   -2.543450   -0.693898
 ---------------------------------------------------------------------

 SCF Done:  E(UB3LYP) =  -1136.11057642     A.U. after   19 cycles

 The electronic state is 2-A.
 Alpha  occ. eigenvalues --  -38.44010 -38.43760 -38.43743 -38.43665 -38.43649
 Alpha  occ. eigenvalues --  -38.43413 -38.43163  -2.19899  -2.19772  -2.19751
 Alpha  occ. eigenvalues --   -2.19667  -2.19646  -2.19401  -2.19378  -1.13690
 Alpha  occ. eigenvalues --   -1.13611  -1.13579  -1.13522  -1.13502  -1.13487
 Alpha  occ. eigenvalues --   -1.13480  -1.13435  -1.13395  -1.13357  -1.13307
 Alpha  occ. eigenvalues --   -1.13284  -1.13249  -1.13241  -1.13214  -1.13142
 Alpha  occ. eigenvalues --   -1.13029  -1.13008  -1.12974  -1.12965  -1.12913
 Alpha  occ. eigenvalues --   -0.20051  -0.13244  -0.12583  -0.11752
 Alpha virt. eigenvalues --   -0.05404  -0.04741  -0.03766  -0.03602  -0.03072
 Alpha virt. eigenvalues --   -0.02850  -0.01320  -0.00924  -0.00194   0.00359
 Alpha virt. eigenvalues --    0.00530   0.00596   0.00787   0.00902   0.01159

  Beta  occ. eigenvalues --  -38.44008 -38.43727 -38.43709 -38.43645 -38.43578
  Beta  occ. eigenvalues --  -38.43406 -38.43101  -2.19898  -2.19682  -2.19634
  Beta  occ. eigenvalues --   -2.19626  -2.19618  -2.19388  -2.19273  -1.13669
  Beta  occ. eigenvalues --   -1.13584  -1.13523  -1.13498  -1.13454  -1.13445
  Beta  occ. eigenvalues --   -1.13423  -1.13388  -1.13352  -1.13283  -1.13273
  Beta  occ. eigenvalues --   -1.13225  -1.13201  -1.13196  -1.13174  -1.13106
  Beta  occ. eigenvalues --   -1.12993  -1.12962  -1.12937  -1.12887  -1.12852
  Beta  occ. eigenvalues --   -0.19281  -0.13075  -0.12286
  Beta virt. eigenvalues --   -0.07562  -0.05347  -0.04697  -0.03603  -0.02973
  Beta virt. eigenvalues --   -0.02329  -0.01724  -0.01234  -0.00873   0.00041
  Beta virt. eigenvalues --    0.00394   0.00523   0.00615   0.00813   0.01008

 Mulliken charges and spin densities:
               1          2
     1  Na  -1.142481  -0.093855
     2  Na   0.359704   0.235007
     3  Na   0.401946   0.095864
     4  Na   0.022714   0.238503
     5  Na   0.267368   0.156090
     6  Na   0.245489   0.211063
     7  Na  -0.154739   0.157327
 Sum of Mulliken charges =  -0.00000   1.00000

 Dipole moment (field-independent basis, Debye):
    X=              0.1549    Y=             -0.1990    Z=              0.0014  Tot=              0.2522
 Quadrupole moment (field-independent basis, Debye-Ang):
   XX=            -59.6499   YY=            -64.9051   ZZ=            -69.7305
   XY=             -0.4479   XZ=              0.0203   YZ=              0.9202

 Normal termination of Gaussian 16 at Mon Nov 13 18:47:05 2023.
