 Gaussian 16, Revision B.01,
 Gaussian 16:  ES64L-G16RevB.01 20-Dec-2017

 -------------------------
 #P B3LYP/6-311+g(d) force
 -------------------------

 ------------------------------
 Gaussian input prepared by ASE
 ------------------------------
 Symbolic Z-matrix:
 Charge =  0 Multiplicity = 2

                         Standard orientation:
 ---------------------------------------------------------------------
 Center     Atomic      Atomic             Coordinates (Angstroms)
 Number     Number       Type             X           Y           Z
 ---------------------------------------------------------------------
      1         11           0        0.438599   -0.741515    0.589652
      2         11           0        2.707151   -1.234974   -1.314151
      3         11           0        3.271560   -0.328426    1.489802
      4         11           0        2.031252    1.563254   -0.476764
      5         11           0       -0.940196    1.816394   -0.148869
      6         11           0       -2.348580   -0.807495   -0.521911
      7         11           0       -5.159786   -0.267238    0.382241
 ---------------------------------------------------------------------

 SCF Done:  E(UB3LYP) =  -1136.08600706     A.U. after   36 cycles

 The electronic state is 2-A.
 Alpha  occ. eigenvalues --  -38.44942 -38.44646 -38.44430 -38.44034 -38.43837
 Alpha  occ. eigenvalues --  -38.43550 -38.43389  -2.20941  -2.20640  -2.20616
 Alpha  occ. eigenvalues --   -2.19918  -2.19872  -2.19527  -2.19377  -1.14731
 Alpha  occ. eigenvalues --   -1.14594  -1.14572  -1.14458  -1.14305  -1.14272
 Alpha  occ. eigenvalues --   -1.14246  -1.14236  -1.14197  -1.13610  -1.13596
 Alpha  occ. eigenvalues --   -1.13581  -1.13537  -1.13496  -1.13493  -1.13279
 Alpha  occ. eigenvalues --   -1.13203  -1.13131  -1.13056  -1.12992  -1.12955
 Alpha  occ. eigenvalues --   -0.19711  -0.15095  -0.11512  -0.10912
 Alpha virt. eigenvalues --   -0.07598  -0.04838  -0.04536  -0.03392  -0.02927
 Alpha virt. eigenvalues --   -0.01798  -0.01729  -0.01281  -0.01055  -0.00610
 Alpha virt. eigenvalues --   -0.00077   0.00190   0.00306   0.00577   0.00838

  Beta  occ. eigenvalues --  -38.44879 -38.44630 -38.44381 -38.43953 -38.43834
  Beta  occ. eigenvalues --  -38.43537 -38.43389  -2.20826  -2.20611  -2.20541
  Beta  occ. eigenvalues --   -2.19921  -2.19723  -2.19515  -2.19378  -1.14674
  Beta  occ. eigenvalues --   -1.14533  -1.14466  -1.14413  -1.14278  -1.14244
  Beta  occ. eigenvalues --   -1.14191  -1.14164  -1.14121  -1.13605  -1.13573
  Beta  occ. eigenvalues --   -1.13532  -1.13485  -1.13394  -1.13391  -1.13268
  Beta  occ. eigenvalues --   -1.13185  -1.13081  -1.13035  -1.13000  -1.12962
  Beta  occ. eigenvalues --   -0.19079  -0.14523  -0.11229
  Beta virt. eigenvalues --   -0.07608  -0.07009  -0.04611  -0.03857  -0.03254
  Beta virt. eigenvalues --   -0.02831  -0.01516  -0.01305  -0.01047  -0.00578
  Beta virt. eigenvalues --   -0.00248   0.00063   0.00329   0.00417   0.00650

 Mulliken charges and spin densities:
               1          2
     1  Na  -1.151542   0.634571
     2  Na  -0.283032  -0.258510
     3  Na   1.645775   0.516725
     4  Na   0.219095   0.366400
     5  Na  -0.757787  -0.359586
     6  Na   0.117465  -0.261076
     7  Na   0.210025   0.361476
 Sum of Mulliken charges =  -0.00000   1.00000

 Dipole moment (field-independent basis, Debye):
    X=              1.2646    Y=              0.2646    Z=             -0.0279  Tot=              1.2923
 Quadrupole moment (field-independent basis, Debye-Ang):
   XX=            -63.0308   YY=            -74.8116   ZZ=            -64.0064
   XY=             -3.1476   XZ=             -2.6108   YZ=             -1.2307

 Normal termination of Gaussian 16 at Mon Nov 13 15:44:10 2023.
