 Gaussian 16, Revision B.01,
 Gaussian 16:  ES64L-G16RevB.01 20-Dec-2017

 -------------------------
 #P B3LYP/6-311+g(d) force
 -------------------------

 ------------------------------
 Gaussian input prepared by ASE
 ------------------------------
 Symbolic Z-matrix:
 Charge =  0 Multiplicity = 2

                         Standard orientation:
 ---------------------------------------------------------------------
 Center     Atomic      Atomic             Coordinates (Angstroms)
 Number     Number       Type             X           Y           Z
 ---------------------------------------------------------------------
      1         11           0        0.205245   -0.248390   -1.744690
      2         11           0       -0.055280   -2.006730    0.405261
      3         11           0       -4.134668    0.006467   -0.060819
      4         11           0       -1.360480    0.822157    0.336920
      5         11           0        1.413857    2.100192   -0.180000
      6         11           0        1.259852    0.059713    1.756580
      7         11           0        2.671472   -0.733410   -0.513252
 ---------------------------------------------------------------------

 SCF Done:  E(UB3LYP) =  -1136.07762595     A.U. after   28 cycles

 The electronic state is 2-A.
 Alpha  occ. eigenvalues --  -38.45992 -38.44804 -38.44614 -38.44310 -38.43213
 Alpha  occ. eigenvalues --  -38.42860 -38.42417  -2.21777  -2.20919  -2.20804
 Alpha  occ. eigenvalues --   -2.20524  -2.19360  -2.18963  -2.18494  -1.15495
 Alpha  occ. eigenvalues --   -1.15421  -1.15401  -1.14830  -1.14752  -1.14578
 Alpha  occ. eigenvalues --   -1.14477  -1.14387  -1.14302  -1.14234  -1.14156
 Alpha  occ. eigenvalues --   -1.14085  -1.13109  -1.13019  -1.12946  -1.12685
 Alpha  occ. eigenvalues --   -1.12631  -1.12492  -1.12201  -1.12138  -1.12105
 Alpha  occ. eigenvalues --   -0.20994  -0.13899  -0.12025  -0.11745
 Alpha virt. eigenvalues --   -0.07457  -0.03644  -0.03545  -0.03442  -0.02638
 Alpha virt. eigenvalues --   -0.02521  -0.02476  -0.00608  -0.00458   0.00032
 Alpha virt. eigenvalues --    0.00281   0.00384   0.00460   0.00859   0.01100

  Beta  occ. eigenvalues --  -38.46008 -38.44772 -38.44524 -38.44217 -38.43190
  Beta  occ. eigenvalues --  -38.42841 -38.42402  -2.21806  -2.20866  -2.20645
  Beta  occ. eigenvalues --   -2.20356  -2.19323  -2.18935  -2.18475  -1.15515
  Beta  occ. eigenvalues --   -1.15438  -1.15421  -1.14776  -1.14655  -1.14473
  Beta  occ. eigenvalues --   -1.14434  -1.14279  -1.14202  -1.14118  -1.14039
  Beta  occ. eigenvalues --   -1.13971  -1.13096  -1.12937  -1.12927  -1.12675
  Beta  occ. eigenvalues --   -1.12553  -1.12475  -1.12196  -1.12106  -1.12061
  Beta  occ. eigenvalues --   -0.20115  -0.13782  -0.11393
  Beta virt. eigenvalues --   -0.07666  -0.07297  -0.03609  -0.03282  -0.02924
  Beta virt. eigenvalues --   -0.02562  -0.01671  -0.01485  -0.00552  -0.00188
  Beta virt. eigenvalues --    0.00072   0.00281   0.00434   0.00618   0.00896

 Mulliken charges and spin densities:
               1          2
     1  Na  -0.072161   0.602911
     2  Na  -0.262210  -0.035935
     3  Na   0.729567  -0.055771
     4  Na  -0.526606   0.175367
     5  Na  -0.346268  -0.062613
     6  Na   0.187870   0.325901
     7  Na   0.289807   0.050139
 Sum of Mulliken charges =  -0.00000   1.00000

 Dipole moment (field-independent basis, Debye):
    X=             -1.1325    Y=             -0.3003    Z=             -0.1327  Tot=              1.1792
 Quadrupole moment (field-independent basis, Debye-Ang):
   XX=            -45.2254   YY=            -76.5944   ZZ=            -69.3005
   XY=              1.2448   XZ=              0.1729   YZ=             -0.6367

 Normal termination of Gaussian 16 at Mon Nov 13 18:10:45 2023.
