 Gaussian 16, Revision B.01,
 Gaussian 16:  ES64L-G16RevB.01 20-Dec-2017

 -------------------------
 #P B3LYP/6-311+g(d) force
 -------------------------

 ------------------------------
 Gaussian input prepared by ASE
 ------------------------------
 Symbolic Z-matrix:
 Charge =  0 Multiplicity = 2

                         Standard orientation:
 ---------------------------------------------------------------------
 Center     Atomic      Atomic             Coordinates (Angstroms)
 Number     Number       Type             X           Y           Z
 ---------------------------------------------------------------------
      1         11           0        1.113707    0.766661    1.590021
      2         11           0        1.610035    0.980918   -1.351572
      3         11           0        2.609056   -1.409574    0.163802
      4         11           0       -0.039838   -2.791247   -0.147733
      5         11           0       -0.253480    2.899531   -0.005475
      6         11           0       -1.058393    0.031330   -0.349281
      7         11           0       -3.981088   -0.477619    0.100238
 ---------------------------------------------------------------------

 SCF Done:  E(UB3LYP) =  -1136.10142794     A.U. after   28 cycles

 The electronic state is 2-A.
 Alpha  occ. eigenvalues --  -38.44895 -38.44612 -38.43954 -38.43941 -38.43508
 Alpha  occ. eigenvalues --  -38.43368 -38.42774  -2.20676  -2.20485  -2.19939
 Alpha  occ. eigenvalues --   -2.19932  -2.19609  -2.19473  -2.18950  -1.14378
 Alpha  occ. eigenvalues --   -1.14326  -1.14306  -1.14214  -1.14151  -1.14117
 Alpha  occ. eigenvalues --   -1.13732  -1.13700  -1.13616  -1.13584  -1.13577
 Alpha  occ. eigenvalues --   -1.13550  -1.13346  -1.13263  -1.13172  -1.13157
 Alpha  occ. eigenvalues --   -1.13064  -1.13022  -1.12613  -1.12595  -1.12587
 Alpha  occ. eigenvalues --   -0.19826  -0.13352  -0.12926  -0.10464
 Alpha virt. eigenvalues --   -0.06628  -0.05279  -0.04272  -0.02939  -0.02488
 Alpha virt. eigenvalues --   -0.02129  -0.01682  -0.01290  -0.00281  -0.00075
 Alpha virt. eigenvalues --   -0.00053   0.00277   0.00686   0.00741   0.00915

  Beta  occ. eigenvalues --  -38.44905 -38.44610 -38.43941 -38.43925 -38.43442
  Beta  occ. eigenvalues --  -38.43288 -38.42748  -2.20694  -2.20483  -2.19921
  Beta  occ. eigenvalues --   -2.19908  -2.19492  -2.19328  -2.18912  -1.14390
  Beta  occ. eigenvalues --   -1.14335  -1.14319  -1.14213  -1.14152  -1.14097
  Beta  occ. eigenvalues --   -1.13717  -1.13680  -1.13569  -1.13555  -1.13541
  Beta  occ. eigenvalues --   -1.13511  -1.13282  -1.13163  -1.13091  -1.13061
  Beta  occ. eigenvalues --   -1.12961  -1.12919  -1.12597  -1.12572  -1.12496
  Beta  occ. eigenvalues --   -0.19052  -0.13049  -0.12836
  Beta virt. eigenvalues --   -0.06503  -0.06321  -0.05216  -0.04211  -0.02176
  Beta virt. eigenvalues --   -0.02049  -0.01905  -0.01261  -0.00757  -0.00253
  Beta virt. eigenvalues --   -0.00040   0.00184   0.00381   0.00745   0.00868

 Mulliken charges and spin densities:
               1          2
     1  Na  -1.097334   0.179103
     2  Na   1.537422   0.193836
     3  Na   1.518980   0.356325
     4  Na  -0.425870  -0.127103
     5  Na   0.796628  -0.017436
     6  Na  -1.883209   0.822398
     7  Na  -0.446618  -0.407123
 Sum of Mulliken charges =  -0.00000   1.00000

 Dipole moment (field-independent basis, Debye):
    X=             -0.5742    Y=             -0.1943    Z=              0.0877  Tot=              0.6125
 Quadrupole moment (field-independent basis, Debye-Ang):
   XX=            -54.8715   YY=            -59.2024   ZZ=            -76.4831
   XY=             -1.6835   XZ=             -1.5200   YZ=             -0.2091

 Normal termination of Gaussian 16 at Mon Nov 13 18:59:44 2023.
