 Gaussian 16, Revision B.01,
 Gaussian 16:  ES64L-G16RevB.01 20-Dec-2017

 -------------------------
 #P B3LYP/6-311+g(d) force
 -------------------------

 ------------------------------
 Gaussian input prepared by ASE
 ------------------------------
 Symbolic Z-matrix:
 Charge =  0 Multiplicity = 2

                         Standard orientation:
 ---------------------------------------------------------------------
 Center     Atomic      Atomic             Coordinates (Angstroms)
 Number     Number       Type             X           Y           Z
 ---------------------------------------------------------------------
      1         11           0        0.659943    1.350045    1.134613
      2         11           0       -3.208111    2.408342   -0.660130
      3         11           0       -3.609062   -2.142227   -0.639723
      4         11           0       -1.988767    0.012840    0.680051
      5         11           0        0.528074   -1.620944    0.820239
      6         11           0        2.335773   -0.009470   -0.948928
      7         11           0        5.282150    0.001416   -0.386122
 ---------------------------------------------------------------------

 SCF Done:  E(UB3LYP) =  -1136.09417121     A.U. after   25 cycles

 The electronic state is 2-A.
 Alpha  occ. eigenvalues --  -38.44954 -38.44780 -38.44777 -38.44479 -38.43680
 Alpha  occ. eigenvalues --  -38.43187 -38.42969  -2.20778  -2.20775  -2.20599
 Alpha  occ. eigenvalues --   -2.20477  -2.19665  -2.19298  -2.18778  -1.14500
 Alpha  occ. eigenvalues --   -1.14482  -1.14465  -1.14413  -1.14405  -1.14369
 Alpha  occ. eigenvalues --   -1.14303  -1.14240  -1.14196  -1.14177  -1.14133
 Alpha  occ. eigenvalues --   -1.14059  -1.13352  -1.13314  -1.13303  -1.13039
 Alpha  occ. eigenvalues --   -1.12944  -1.12914  -1.12444  -1.12427  -1.12426
 Alpha  occ. eigenvalues --   -0.18613  -0.14328  -0.12295  -0.10831
 Alpha virt. eigenvalues --   -0.06190  -0.05868  -0.04515  -0.03602  -0.02931
 Alpha virt. eigenvalues --   -0.02493  -0.01528  -0.01196  -0.00966  -0.00422
 Alpha virt. eigenvalues --   -0.00351   0.00137   0.00280   0.00460   0.00603

  Beta  occ. eigenvalues --  -38.44883 -38.44747 -38.44720 -38.44455 -38.43677
  Beta  occ. eigenvalues --  -38.43161 -38.42975  -2.20721  -2.20646  -2.20488
  Beta  occ. eigenvalues --   -2.20433  -2.19659  -2.19265  -2.18790  -1.14469
  Beta  occ. eigenvalues --   -1.14432  -1.14384  -1.14352  -1.14325  -1.14277
  Beta  occ. eigenvalues --   -1.14226  -1.14166  -1.14142  -1.14116  -1.14104
  Beta  occ. eigenvalues --   -1.14018  -1.13339  -1.13310  -1.13305  -1.12935
  Beta  occ. eigenvalues --   -1.12914  -1.12904  -1.12451  -1.12435  -1.12435
  Beta  occ. eigenvalues --   -0.17957  -0.13904  -0.10761
  Beta virt. eigenvalues --   -0.08353  -0.05914  -0.05298  -0.04277  -0.02955
  Beta virt. eigenvalues --   -0.02748  -0.01983  -0.01354  -0.01035  -0.00621
  Beta virt. eigenvalues --   -0.00320  -0.00104   0.00171   0.00445   0.00548

 Mulliken charges and spin densities:
               1          2
     1  Na   0.080338   0.257862
     2  Na   0.172587   0.380755
     3  Na   0.288151   0.402118
     4  Na  -0.350134  -0.340154
     5  Na   0.154952   0.310975
     6  Na  -0.630923  -0.077825
     7  Na   0.285030   0.066268
 Sum of Mulliken charges =  -0.00000   1.00000

 Dipole moment (field-independent basis, Debye):
    X=             -1.1472    Y=             -0.1584    Z=              0.6209  Tot=              1.3140
 Quadrupole moment (field-independent basis, Debye-Ang):
   XX=            -75.7708   YY=            -60.2374   ZZ=            -70.5743
   XY=              0.7742   XZ=              7.0310   YZ=              0.9595

 Normal termination of Gaussian 16 at Mon Nov 13 15:07:41 2023.
