 Gaussian 16, Revision B.01,
 Gaussian 16:  ES64L-G16RevB.01 20-Dec-2017

 -------------------------
 #P B3LYP/6-311+g(d) force
 -------------------------

 ------------------------------
 Gaussian input prepared by ASE
 ------------------------------
 Symbolic Z-matrix:
 Charge =  0 Multiplicity = 2

                         Standard orientation:
 ---------------------------------------------------------------------
 Center     Atomic      Atomic             Coordinates (Angstroms)
 Number     Number       Type             X           Y           Z
 ---------------------------------------------------------------------
      1         11           0       -0.106985   -1.086133    0.934083
      2         11           0        0.911896    1.615751    1.752463
      3         11           0        4.084340   -1.953294   -0.418700
      4         11           0        2.065777    0.249779   -0.644996
      5         11           0       -0.074061    2.328164   -0.990910
      6         11           0       -2.269274    0.308070   -0.616160
      7         11           0       -4.611694   -1.462337   -0.015781
 ---------------------------------------------------------------------

 SCF Done:  E(UB3LYP) =  -1136.09802935     A.U. after   24 cycles

 The electronic state is 2-A.
 Alpha  occ. eigenvalues --  -38.45167 -38.44910 -38.44731 -38.43808 -38.43646
 Alpha  occ. eigenvalues --  -38.43644 -38.43438  -2.21141  -2.20742  -2.20705
 Alpha  occ. eigenvalues --   -2.19790  -2.19665  -2.19529  -2.19460  -1.14871
 Alpha  occ. eigenvalues --   -1.14832  -1.14756  -1.14439  -1.14411  -1.14370
 Alpha  occ. eigenvalues --   -1.14354  -1.14352  -1.14338  -1.13526  -1.13493
 Alpha  occ. eigenvalues --   -1.13422  -1.13409  -1.13275  -1.13247  -1.13227
 Alpha  occ. eigenvalues --   -1.13209  -1.13187  -1.13101  -1.13090  -1.12994
 Alpha  occ. eigenvalues --   -0.19494  -0.13804  -0.12122  -0.11191
 Alpha virt. eigenvalues --   -0.07169  -0.05641  -0.03595  -0.03252  -0.02725
 Alpha virt. eigenvalues --   -0.02463  -0.02031  -0.01676  -0.00650  -0.00615
 Alpha virt. eigenvalues --   -0.00078   0.00256   0.00419   0.00644   0.00770

  Beta  occ. eigenvalues --  -38.45106 -38.44913 -38.44673 -38.43790 -38.43631
  Beta  occ. eigenvalues --  -38.43593 -38.43415  -2.21034  -2.20712  -2.20639
  Beta  occ. eigenvalues --   -2.19761  -2.19573  -2.19493  -2.19433  -1.14805
  Beta  occ. eigenvalues --   -1.14721  -1.14685  -1.14415  -1.14377  -1.14359
  Beta  occ. eigenvalues --   -1.14341  -1.14290  -1.14261  -1.13498  -1.13454
  Beta  occ. eigenvalues --   -1.13383  -1.13372  -1.13205  -1.13197  -1.13192
  Beta  occ. eigenvalues --   -1.13174  -1.13135  -1.13081  -1.13069  -1.12971
  Beta  occ. eigenvalues --   -0.18755  -0.13612  -0.11883
  Beta virt. eigenvalues --   -0.07238  -0.06954  -0.05293  -0.03250  -0.02782
  Beta virt. eigenvalues --   -0.02643  -0.02120  -0.01682  -0.01129  -0.00489
  Beta virt. eigenvalues --   -0.00262  -0.00010   0.00338   0.00639   0.00709

 Mulliken charges and spin densities:
               1          2
     1  Na  -0.708297   0.429938
     2  Na   0.952083   0.133086
     3  Na   0.552103   0.080840
     4  Na  -0.412635   0.166343
     5  Na  -0.395210   0.202570
     6  Na  -0.677866  -0.075395
     7  Na   0.689821   0.062618
 Sum of Mulliken charges =  -0.00000   1.00000

 Dipole moment (field-independent basis, Debye):
    X=             -0.9552    Y=              0.2074    Z=              1.0443  Tot=              1.4304
 Quadrupole moment (field-independent basis, Debye-Ang):
   XX=            -56.4841   YY=            -64.7268   ZZ=            -72.3088
   XY=              3.8857   XZ=              1.3252   YZ=              1.0677

 Normal termination of Gaussian 16 at Mon Nov 13 16:10:57 2023.
