 Gaussian 16, Revision B.01,
 Gaussian 16:  ES64L-G16RevB.01 20-Dec-2017

 -------------------------
 #P B3LYP/6-311+g(d) force
 -------------------------

 ------------------------------
 Gaussian input prepared by ASE
 ------------------------------
 Symbolic Z-matrix:
 Charge =  0 Multiplicity = 2

                         Standard orientation:
 ---------------------------------------------------------------------
 Center     Atomic      Atomic             Coordinates (Angstroms)
 Number     Number       Type             X           Y           Z
 ---------------------------------------------------------------------
      1         11           0       -0.002396    0.065788   -1.683994
      2         11           0        0.004381   -1.946390   -0.053460
      3         11           0       -2.430154   -0.809648    0.056183
      4         11           0       -1.407003    1.681874   -0.033878
      5         11           0       -0.000347    0.124849    1.694722
      6         11           0        1.399675    1.683675   -0.034640
      7         11           0        2.435844   -0.800148    0.055068
 ---------------------------------------------------------------------

 SCF Done:  E(UB3LYP) =  -1136.04287044     A.U. after   19 cycles

 The electronic state is 2-A.
 Alpha  occ. eigenvalues --  -38.44776 -38.44563 -38.44239 -38.44234 -38.44003
 Alpha  occ. eigenvalues --  -38.43948 -38.43944  -2.21173  -2.20937  -2.20417
 Alpha  occ. eigenvalues --   -2.20397  -2.20293  -2.20219  -2.20179  -1.15144
 Alpha  occ. eigenvalues --   -1.15045  -1.14845  -1.14777  -1.14743  -1.14648
 Alpha  occ. eigenvalues --   -1.14440  -1.14332  -1.14229  -1.14157  -1.13983
 Alpha  occ. eigenvalues --   -1.13952  -1.13948  -1.13832  -1.13793  -1.13763
 Alpha  occ. eigenvalues --   -1.13752  -1.13742  -1.13651  -1.13629  -1.13526
 Alpha  occ. eigenvalues --   -0.22440  -0.14341  -0.12982  -0.12537
 Alpha virt. eigenvalues --   -0.05372  -0.04206  -0.03969  -0.03872  -0.03143
 Alpha virt. eigenvalues --   -0.02671  -0.01164  -0.00383  -0.00070   0.00312
 Alpha virt. eigenvalues --    0.00826   0.00902   0.01077   0.01193   0.01291

  Beta  occ. eigenvalues --  -38.44676 -38.44465 -38.44228 -38.44223 -38.43981
  Beta  occ. eigenvalues --  -38.43929 -38.43926  -2.20995  -2.20763  -2.20399
  Beta  occ. eigenvalues --   -2.20383  -2.20267  -2.20194  -2.20155  -1.15057
  Beta  occ. eigenvalues --   -1.14925  -1.14736  -1.14670  -1.14630  -1.14534
  Beta  occ. eigenvalues --   -1.14428  -1.14327  -1.14198  -1.14137  -1.13927
  Beta  occ. eigenvalues --   -1.13914  -1.13885  -1.13774  -1.13736  -1.13733
  Beta  occ. eigenvalues --   -1.13669  -1.13659  -1.13641  -1.13622  -1.13520
  Beta  occ. eigenvalues --   -0.21605  -0.13921  -0.12583
  Beta virt. eigenvalues --   -0.08253  -0.05422  -0.04184  -0.03893  -0.02844
  Beta virt. eigenvalues --   -0.02187  -0.01626  -0.01083  -0.00350   0.00069
  Beta virt. eigenvalues --    0.00342   0.00833   0.00897   0.01088   0.01218

 Mulliken charges and spin densities:
               1          2
     1  Na  -0.317741   0.453189
     2  Na   0.421267   0.107477
     3  Na  -0.114884  -0.052251
     4  Na   0.204782   0.029908
     5  Na  -0.278704   0.484515
     6  Na   0.205135   0.030444
     7  Na  -0.119855  -0.053281
 Sum of Mulliken charges =  -0.00000   1.00000

 Dipole moment (field-independent basis, Debye):
    X=              0.0013    Y=             -0.0683    Z=              0.0784  Tot=              0.1040
 Quadrupole moment (field-independent basis, Debye-Ang):
   XX=            -58.8544   YY=            -71.2111   ZZ=            -68.7776
   XY=             -0.0049   XZ=             -0.0036   YZ=             -0.1833

 Normal termination of Gaussian 16 at Mon Nov 13 20:45:50 2023.
