 Gaussian 16, Revision B.01,
 Gaussian 16:  ES64L-G16RevB.01 20-Dec-2017

 -------------------------
 #P B3LYP/6-311+g(d) force
 -------------------------

 ------------------------------
 Gaussian input prepared by ASE
 ------------------------------
 Symbolic Z-matrix:
 Charge =  0 Multiplicity = 2

                         Standard orientation:
 ---------------------------------------------------------------------
 Center     Atomic      Atomic             Coordinates (Angstroms)
 Number     Number       Type             X           Y           Z
 ---------------------------------------------------------------------
      1         11           0        1.242721    0.834350   -0.844909
      2         11           0        4.136924    0.517834   -0.130688
      3         11           0        2.036895   -0.937525    1.437945
      4         11           0        0.160890   -1.961699   -0.667874
      5         11           0       -2.813932   -1.844671   -0.287443
      6         11           0       -3.608925    0.908039    0.599154
      7         11           0       -1.154574    2.483672   -0.106185
 ---------------------------------------------------------------------

 SCF Done:  E(UB3LYP) =  -1136.09841281     A.U. after   24 cycles

 The electronic state is 2-A.
 Alpha  occ. eigenvalues --  -38.45803 -38.44815 -38.44131 -38.44050 -38.43943
 Alpha  occ. eigenvalues --  -38.43264 -38.43148  -2.21772  -2.20733  -2.20138
 Alpha  occ. eigenvalues --   -2.20013  -2.19839  -2.19151  -2.19131  -1.15490
 Alpha  occ. eigenvalues --   -1.15437  -1.15411  -1.14425  -1.14377  -1.14337
 Alpha  occ. eigenvalues --   -1.13829  -1.13806  -1.13774  -1.13770  -1.13693
 Alpha  occ. eigenvalues --   -1.13652  -1.13514  -1.13467  -1.13445  -1.12833
 Alpha  occ. eigenvalues --   -1.12809  -1.12789  -1.12776  -1.12774  -1.12744
 Alpha  occ. eigenvalues --   -0.18834  -0.15001  -0.11982  -0.10922
 Alpha virt. eigenvalues --   -0.07091  -0.05227  -0.04503  -0.03474  -0.03250
 Alpha virt. eigenvalues --   -0.02198  -0.01474  -0.01225  -0.00405  -0.00316
 Alpha virt. eigenvalues --   -0.00153  -0.00059   0.00399   0.00660   0.00721

  Beta  occ. eigenvalues --  -38.45782 -38.44754 -38.44109 -38.43999 -38.43899
  Beta  occ. eigenvalues --  -38.43247 -38.43121  -2.21739  -2.20620  -2.20052
  Beta  occ. eigenvalues --   -2.19977  -2.19759  -2.19122  -2.19083  -1.15469
  Beta  occ. eigenvalues --   -1.15392  -1.15370  -1.14357  -1.14288  -1.14259
  Beta  occ. eigenvalues --   -1.13760  -1.13737  -1.13719  -1.13695  -1.13664
  Beta  occ. eigenvalues --   -1.13631  -1.13462  -1.13414  -1.13391  -1.12787
  Beta  occ. eigenvalues --   -1.12779  -1.12773  -1.12762  -1.12729  -1.12717
  Beta  occ. eigenvalues --   -0.18200  -0.14304  -0.11826
  Beta virt. eigenvalues --   -0.07230  -0.06910  -0.05037  -0.04013  -0.03158
  Beta virt. eigenvalues --   -0.02745  -0.01963  -0.01141  -0.00961  -0.00143
  Beta virt. eigenvalues --   -0.00069  -0.00027   0.00167   0.00563   0.00746

 Mulliken charges and spin densities:
               1          2
     1  Na  -1.190195   0.395547
     2  Na   0.567690   0.170726
     3  Na   0.230672   0.177084
     4  Na   0.250041  -0.100784
     5  Na   0.095108   0.225690
     6  Na  -0.412294   0.266409
     7  Na   0.458978  -0.134672
 Sum of Mulliken charges =  -0.00000   1.00000

 Dipole moment (field-independent basis, Debye):
    X=              1.4080    Y=             -0.3329    Z=              0.3544  Tot=              1.4896
 Quadrupole moment (field-independent basis, Debye-Ang):
   XX=            -64.1654   YY=            -74.3626   ZZ=            -64.9152
   XY=              0.2995   XZ=             -1.7649   YZ=             -0.5170

 Normal termination of Gaussian 16 at Mon Nov 13 14:56:03 2023.
