 Gaussian 16, Revision B.01,
 Gaussian 16:  ES64L-G16RevB.01 20-Dec-2017

 -------------------------
 #P B3LYP/6-311+g(d) force
 -------------------------

 ------------------------------
 Gaussian input prepared by ASE
 ------------------------------
 Symbolic Z-matrix:
 Charge =  0 Multiplicity = 2

                         Standard orientation:
 ---------------------------------------------------------------------
 Center     Atomic      Atomic             Coordinates (Angstroms)
 Number     Number       Type             X           Y           Z
 ---------------------------------------------------------------------
      1         11           0       -0.327968   -1.369001   -0.097593
      2         11           0       -3.119467   -1.326569   -1.179461
      3         11           0       -2.430084    0.296795    1.242568
      4         11           0       -0.691200    2.676514    0.677508
      5         11           0        0.780806    1.098925   -1.409214
      6         11           0        3.536075    0.176014   -0.660684
      7         11           0        2.251839   -1.552678    1.426875
 ---------------------------------------------------------------------

 SCF Done:  E(UB3LYP) =  -1136.10330905     A.U. after   21 cycles

 The electronic state is 2-A.
 Alpha  occ. eigenvalues --  -38.45360 -38.44440 -38.44176 -38.44012 -38.43987
 Alpha  occ. eigenvalues --  -38.43671 -38.42816  -2.21245  -2.20433  -2.20085
 Alpha  occ. eigenvalues --   -2.20052  -2.19921  -2.19659  -2.18721  -1.14947
 Alpha  occ. eigenvalues --   -1.14919  -1.14868  -1.14185  -1.14133  -1.14067
 Alpha  occ. eigenvalues --   -1.13893  -1.13781  -1.13718  -1.13699  -1.13684
 Alpha  occ. eigenvalues --   -1.13673  -1.13557  -1.13525  -1.13497  -1.13321
 Alpha  occ. eigenvalues --   -1.13309  -1.13285  -1.12398  -1.12379  -1.12343
 Alpha  occ. eigenvalues --   -0.19006  -0.14607  -0.11961  -0.10966
 Alpha virt. eigenvalues --   -0.06924  -0.04987  -0.04114  -0.03545  -0.02959
 Alpha virt. eigenvalues --   -0.02589  -0.01958  -0.00809  -0.00545   0.00103
 Alpha virt. eigenvalues --    0.00181   0.00212   0.00508   0.00820   0.00857

  Beta  occ. eigenvalues --  -38.45347 -38.44411 -38.44148 -38.43961 -38.43957
  Beta  occ. eigenvalues --  -38.43630 -38.42806  -2.21224  -2.20383  -2.20034
  Beta  occ. eigenvalues --   -2.20006  -2.19827  -2.19583  -2.18706  -1.14913
  Beta  occ. eigenvalues --   -1.14895  -1.14859  -1.14153  -1.14078  -1.14037
  Beta  occ. eigenvalues --   -1.13828  -1.13742  -1.13682  -1.13649  -1.13643
  Beta  occ. eigenvalues --   -1.13635  -1.13495  -1.13458  -1.13438  -1.13268
  Beta  occ. eigenvalues --   -1.13258  -1.13232  -1.12381  -1.12363  -1.12329
  Beta  occ. eigenvalues --   -0.18400  -0.14323  -0.11616
  Beta virt. eigenvalues --   -0.07298  -0.06716  -0.04401  -0.03869  -0.03289
  Beta virt. eigenvalues --   -0.02527  -0.02348  -0.01330  -0.00515  -0.00342
  Beta virt. eigenvalues --    0.00187   0.00235   0.00338   0.00602   0.00883

 Mulliken charges and spin densities:
               1          2
     1  Na  -1.296226   0.665906
     2  Na   0.692650  -0.056259
     3  Na  -0.208316  -0.028922
     4  Na   0.070689   0.012163
     5  Na  -0.291796   0.272272
     6  Na   0.202160  -0.078323
     7  Na   0.830839   0.213164
 Sum of Mulliken charges =  -0.00000   1.00000

 Dipole moment (field-independent basis, Debye):
    X=              0.4448    Y=              0.0723    Z=             -0.0105  Tot=              0.4507
 Quadrupole moment (field-independent basis, Debye-Ang):
   XX=            -49.9325   YY=            -75.9184   ZZ=            -69.3701
   XY=              1.0388   XZ=              0.2325   YZ=              0.9729

 Normal termination of Gaussian 16 at Mon Nov 13 14:56:48 2023.
