 Gaussian 16, Revision B.01,
 Gaussian 16:  ES64L-G16RevB.01 20-Dec-2017

 -------------------------
 #P B3LYP/6-311+g(d) force
 -------------------------

 ------------------------------
 Gaussian input prepared by ASE
 ------------------------------
 Symbolic Z-matrix:
 Charge =  0 Multiplicity = 2

                         Standard orientation:
 ---------------------------------------------------------------------
 Center     Atomic      Atomic             Coordinates (Angstroms)
 Number     Number       Type             X           Y           Z
 ---------------------------------------------------------------------
      1         11           0        1.837607    0.691019    1.327842
      2         11           0       -2.348898    2.238063    0.891063
      3         11           0       -3.040001   -1.619311   -0.921925
      4         11           0       -0.629457    0.051064   -0.253990
      5         11           0        1.497035    1.813769   -1.428839
      6         11           0        2.016926   -1.112399   -1.057537
      7         11           0        0.666788   -2.062204    1.443384
 ---------------------------------------------------------------------

 SCF Done:  E(UB3LYP) =  -1136.10085499     A.U. after   24 cycles

 The electronic state is 2-A.
 Alpha  occ. eigenvalues --  -38.44597 -38.44527 -38.43990 -38.43927 -38.43272
 Alpha  occ. eigenvalues --  -38.43090 -38.42298  -2.20397  -2.20325  -2.20084
 Alpha  occ. eigenvalues --   -2.20013  -2.19265  -2.19083  -2.18588  -1.14101
 Alpha  occ. eigenvalues --   -1.14035  -1.14030  -1.14006  -1.13971  -1.13931
 Alpha  occ. eigenvalues --   -1.13926  -1.13776  -1.13727  -1.13711  -1.13653
 Alpha  occ. eigenvalues --   -1.13563  -1.12990  -1.12899  -1.12859  -1.12822
 Alpha  occ. eigenvalues --   -1.12712  -1.12681  -1.12286  -1.12266  -1.12183
 Alpha  occ. eigenvalues --   -0.19619  -0.13217  -0.12056  -0.11338
 Alpha virt. eigenvalues --   -0.05771  -0.05295  -0.03724  -0.03035  -0.02826
 Alpha virt. eigenvalues --   -0.02254  -0.01480  -0.01055  -0.00483   0.00223
 Alpha virt. eigenvalues --    0.00348   0.00462   0.00659   0.00769   0.00854

  Beta  occ. eigenvalues --  -38.44568 -38.44503 -38.43944 -38.43892 -38.43244
  Beta  occ. eigenvalues --  -38.43063 -38.42272  -2.20343  -2.20280  -2.20003
  Beta  occ. eigenvalues --   -2.19951  -2.19217  -2.19038  -2.18551  -1.14062
  Beta  occ. eigenvalues --   -1.14002  -1.13997  -1.13969  -1.13938  -1.13899
  Beta  occ. eigenvalues --   -1.13887  -1.13698  -1.13673  -1.13652  -1.13592
  Beta  occ. eigenvalues --   -1.13509  -1.12958  -1.12868  -1.12805  -1.12792
  Beta  occ. eigenvalues --   -1.12677  -1.12630  -1.12258  -1.12174  -1.12162
  Beta  occ. eigenvalues --   -0.18867  -0.12920  -0.11752
  Beta virt. eigenvalues --   -0.07462  -0.05357  -0.05060  -0.03675  -0.02656
  Beta virt. eigenvalues --   -0.02345  -0.01443  -0.01265  -0.00857  -0.00204
  Beta virt. eigenvalues --    0.00298   0.00378   0.00489   0.00767   0.00827

 Mulliken charges and spin densities:
               1          2
     1  Na   0.712513   0.550684
     2  Na   0.600085  -0.018647
     3  Na   0.459255  -0.331613
     4  Na  -2.607764   0.816741
     5  Na   0.554571   0.199573
     6  Na   0.118735  -0.189841
     7  Na   0.162604  -0.026896
 Sum of Mulliken charges =  -0.00000   1.00000

 Dipole moment (field-independent basis, Debye):
    X=             -0.4293    Y=              0.0791    Z=              0.1182  Tot=              0.4522
 Quadrupole moment (field-independent basis, Debye-Ang):
   XX=            -58.1328   YY=            -65.1312   ZZ=            -67.2299
   XY=              0.1980   XZ=             -0.4387   YZ=              2.6503

 Normal termination of Gaussian 16 at Mon Nov 13 20:11:25 2023.
