 Gaussian 16, Revision B.01,
 Gaussian 16:  ES64L-G16RevB.01 20-Dec-2017

 -------------------------
 #P B3LYP/6-311+g(d) force
 -------------------------

 ------------------------------
 Gaussian input prepared by ASE
 ------------------------------
 Symbolic Z-matrix:
 Charge =  0 Multiplicity = 2

                         Standard orientation:
 ---------------------------------------------------------------------
 Center     Atomic      Atomic             Coordinates (Angstroms)
 Number     Number       Type             X           Y           Z
 ---------------------------------------------------------------------
      1         11           0        0.264692   -0.640359   -0.843654
      2         11           0        3.262300   -0.649528   -0.836944
      3         11           0        1.762003   -0.846329    1.748465
      4         11           0        1.766306    1.727448    0.212355
      5         11           0       -1.147382    1.983350   -0.450243
      6         11           0       -3.588702    0.510169    0.491932
      7         11           0       -2.319218   -2.084751   -0.321911
 ---------------------------------------------------------------------

 SCF Done:  E(UB3LYP) =  -1136.09198680     A.U. after   31 cycles

 The electronic state is 2-A.
 Alpha  occ. eigenvalues --  -38.45689 -38.45552 -38.44120 -38.43929 -38.43586
 Alpha  occ. eigenvalues --  -38.43502 -38.42825  -2.21565  -2.21524  -2.20127
 Alpha  occ. eigenvalues --   -2.19812  -2.19691  -2.19658  -2.18795  -1.15248
 Alpha  occ. eigenvalues --   -1.15247  -1.15229  -1.15201  -1.15176  -1.15163
 Alpha  occ. eigenvalues --   -1.13888  -1.13755  -1.13735  -1.13600  -1.13477
 Alpha  occ. eigenvalues --   -1.13465  -1.13435  -1.13339  -1.13319  -1.13312
 Alpha  occ. eigenvalues --   -1.13277  -1.13209  -1.12495  -1.12441  -1.12410
 Alpha  occ. eigenvalues --   -0.19654  -0.15207  -0.11563  -0.10468
 Alpha virt. eigenvalues --   -0.07458  -0.05677  -0.04073  -0.03395  -0.02808
 Alpha virt. eigenvalues --   -0.02023  -0.01783  -0.01065  -0.00401  -0.00291
 Alpha virt. eigenvalues --    0.00014   0.00229   0.00503   0.00674   0.00745

  Beta  occ. eigenvalues --  -38.45680 -38.45530 -38.44043 -38.43928 -38.43562
  Beta  occ. eigenvalues --  -38.43445 -38.42819  -2.21547  -2.21491  -2.19986
  Beta  occ. eigenvalues --   -2.19812  -2.19631  -2.19589  -2.18788  -1.15239
  Beta  occ. eigenvalues --   -1.15233  -1.15217  -1.15185  -1.15155  -1.15088
  Beta  occ. eigenvalues --   -1.13804  -1.13653  -1.13629  -1.13574  -1.13467
  Beta  occ. eigenvalues --   -1.13435  -1.13429  -1.13314  -1.13265  -1.13226
  Beta  occ. eigenvalues --   -1.13203  -1.13141  -1.12483  -1.12438  -1.12389
  Beta  occ. eigenvalues --   -0.18936  -0.14947  -0.11366
  Beta virt. eigenvalues --   -0.07230  -0.06498  -0.05576  -0.03575  -0.03219
  Beta virt. eigenvalues --   -0.02706  -0.01410  -0.01071  -0.00907  -0.00297
  Beta virt. eigenvalues --   -0.00014   0.00141   0.00257   0.00695   0.00748

 Mulliken charges and spin densities:
               1          2
     1  Na  -1.501087   0.218147
     2  Na   1.185843   0.095487
     3  Na  -0.972916   0.426966
     4  Na   0.547596   0.283067
     5  Na   0.314566  -0.140585
     6  Na  -0.347869   0.135046
     7  Na   0.773867  -0.018128
 Sum of Mulliken charges =  -0.00000   1.00000

 Dipole moment (field-independent basis, Debye):
    X=             -0.1151    Y=             -0.1480    Z=              0.1241  Tot=              0.2248
 Quadrupole moment (field-independent basis, Debye-Ang):
   XX=            -44.7877   YY=            -74.3044   ZZ=            -74.3663
   XY=             -0.9221   XZ=             -4.8835   YZ=             -0.0156

 Normal termination of Gaussian 16 at Mon Nov 13 15:44:39 2023.
