 Gaussian 16, Revision B.01,
 Gaussian 16:  ES64L-G16RevB.01 20-Dec-2017

 -------------------------
 #P B3LYP/6-311+g(d) force
 -------------------------

 ------------------------------
 Gaussian input prepared by ASE
 ------------------------------
 Symbolic Z-matrix:
 Charge =  0 Multiplicity = 2

                         Standard orientation:
 ---------------------------------------------------------------------
 Center     Atomic      Atomic             Coordinates (Angstroms)
 Number     Number       Type             X           Y           Z
 ---------------------------------------------------------------------
      1         11           0        0.231222   -0.559386    1.761840
      2         11           0       -1.664512    3.567313    0.018792
      3         11           0        4.508723    0.041072    0.140701
      4         11           0        1.884686   -1.177537   -0.660755
      5         11           0        0.100565    1.234546   -0.640943
      6         11           0       -1.096324   -1.511908   -0.752142
      7         11           0       -3.964359   -1.594100    0.132506
 ---------------------------------------------------------------------

 SCF Done:  E(UB3LYP) =  -1136.08868940     A.U. after   25 cycles

 The electronic state is 2-A.
 Alpha  occ. eigenvalues --  -38.47349 -38.44012 -38.43996 -38.43917 -38.43694
 Alpha  occ. eigenvalues --  -38.43535 -38.43216  -2.23300  -2.20098  -2.19865
 Alpha  occ. eigenvalues --   -2.19786  -2.19759  -2.19607  -2.19028  -1.17032
 Alpha  occ. eigenvalues --   -1.16928  -1.16903  -1.13919  -1.13782  -1.13755
 Alpha  occ. eigenvalues --   -1.13587  -1.13500  -1.13490  -1.13481  -1.13459
 Alpha  occ. eigenvalues --   -1.13431  -1.13377  -1.13370  -1.13303  -1.13292
 Alpha  occ. eigenvalues --   -1.13259  -1.13188  -1.12688  -1.12668  -1.12663
 Alpha  occ. eigenvalues --   -0.19491  -0.13858  -0.11997  -0.10788
 Alpha virt. eigenvalues --   -0.07835  -0.05299  -0.04187  -0.03211  -0.02904
 Alpha virt. eigenvalues --   -0.02062  -0.01972  -0.01505  -0.01191  -0.00594
 Alpha virt. eigenvalues --   -0.00066  -0.00050   0.00448   0.00491   0.00627

  Beta  occ. eigenvalues --  -38.47329 -38.43974 -38.43921 -38.43827 -38.43674
  Beta  occ. eigenvalues --  -38.43525 -38.43211  -2.23265  -2.20070  -2.19760
  Beta  occ. eigenvalues --   -2.19695  -2.19595  -2.19593  -2.19018  -1.16987
  Beta  occ. eigenvalues --   -1.16902  -1.16900  -1.13827  -1.13773  -1.13728
  Beta  occ. eigenvalues --   -1.13504  -1.13479  -1.13411  -1.13371  -1.13365
  Beta  occ. eigenvalues --   -1.13351  -1.13284  -1.13267  -1.13257  -1.13236
  Beta  occ. eigenvalues --   -1.13213  -1.13176  -1.12682  -1.12661  -1.12657
  Beta  occ. eigenvalues --   -0.18984  -0.12911  -0.11795
  Beta virt. eigenvalues --   -0.07778  -0.07251  -0.05155  -0.03433  -0.02915
  Beta virt. eigenvalues --   -0.02675  -0.02053  -0.01843  -0.01246  -0.00696
  Beta virt. eigenvalues --   -0.00242   0.00068   0.00272   0.00593   0.00630

 Mulliken charges and spin densities:
               1          2
     1  Na  -0.376432  -0.149296
     2  Na  -0.024064  -0.132453
     3  Na  -0.119548   0.254780
     4  Na   1.056843   0.448908
     5  Na  -1.609150  -0.079721
     6  Na   0.716195   0.216835
     7  Na   0.356158   0.440947
 Sum of Mulliken charges =  -0.00000   1.00000

 Dipole moment (field-independent basis, Debye):
    X=              0.1475    Y=             -0.5169    Z=              1.5991  Tot=              1.6870
 Quadrupole moment (field-independent basis, Debye-Ang):
   XX=            -72.3462   YY=            -75.8401   ZZ=            -59.9347
   XY=             -2.8482   XZ=             -0.4463   YZ=              0.9504

 Normal termination of Gaussian 16 at Mon Nov 13 19:24:25 2023.
