 Gaussian 16, Revision B.01,
 Gaussian 16:  ES64L-G16RevB.01 20-Dec-2017

 -------------------------
 #P B3LYP/6-311+g(d) force
 -------------------------

 ------------------------------
 Gaussian input prepared by ASE
 ------------------------------
 Symbolic Z-matrix:
 Charge =  0 Multiplicity = 2

                         Standard orientation:
 ---------------------------------------------------------------------
 Center     Atomic      Atomic             Coordinates (Angstroms)
 Number     Number       Type             X           Y           Z
 ---------------------------------------------------------------------
      1         11           0        0.212004    1.024866    1.521591
      2         11           0       -1.396775    2.964725   -0.110104
      3         11           0       -4.029460   -1.944809   -0.231663
      4         11           0       -1.179532   -1.457315    0.563204
      5         11           0       -0.155106    0.562409   -1.409036
      6         11           0        2.611609    0.767248   -0.264727
      7         11           0        3.937260   -1.917125   -0.069266
 ---------------------------------------------------------------------

 SCF Done:  E(UB3LYP) =  -1136.09343319     A.U. after   24 cycles

 The electronic state is 2-A.
 Alpha  occ. eigenvalues --  -38.45032 -38.44746 -38.44577 -38.44333 -38.44203
 Alpha  occ. eigenvalues --  -38.43386 -38.43385  -2.20816  -2.20648  -2.20633
 Alpha  occ. eigenvalues --   -2.20172  -2.20127  -2.19497  -2.19356  -1.14528
 Alpha  occ. eigenvalues --   -1.14464  -1.14457  -1.14440  -1.14392  -1.14320
 Alpha  occ. eigenvalues --   -1.14314  -1.14249  -1.14160  -1.13874  -1.13835
 Alpha  occ. eigenvalues --   -1.13831  -1.13777  -1.13765  -1.13761  -1.13253
 Alpha  occ. eigenvalues --   -1.13138  -1.13080  -1.13045  -1.12953  -1.12940
 Alpha  occ. eigenvalues --   -0.19154  -0.13448  -0.12366  -0.10390
 Alpha virt. eigenvalues --   -0.07156  -0.06104  -0.03357  -0.03033  -0.02625
 Alpha virt. eigenvalues --   -0.02417  -0.02232  -0.01941  -0.00403  -0.00295
 Alpha virt. eigenvalues --   -0.00099   0.00247   0.00535   0.00609   0.00641

  Beta  occ. eigenvalues --  -38.45039 -38.44724 -38.44526 -38.44334 -38.44188
  Beta  occ. eigenvalues --  -38.43355 -38.43302  -2.20831  -2.20603  -2.20551
  Beta  occ. eigenvalues --   -2.20149  -2.20129  -2.19346  -2.19306  -1.14538
  Beta  occ. eigenvalues --   -1.14471  -1.14465  -1.14401  -1.14312  -1.14260
  Beta  occ. eigenvalues --   -1.14255  -1.14221  -1.14109  -1.13848  -1.13832
  Beta  occ. eigenvalues --   -1.13790  -1.13778  -1.13763  -1.13751  -1.13161
  Beta  occ. eigenvalues --   -1.13035  -1.13007  -1.12967  -1.12921  -1.12853
  Beta  occ. eigenvalues --   -0.18388  -0.13306  -0.12187
  Beta virt. eigenvalues --   -0.07014  -0.06326  -0.05920  -0.03256  -0.02634
  Beta virt. eigenvalues --   -0.02401  -0.02283  -0.01847  -0.01006  -0.00293
  Beta virt. eigenvalues --   -0.00085  -0.00013   0.00317   0.00604   0.00679

 Mulliken charges and spin densities:
               1          2
     1  Na  -0.149860   0.096639
     2  Na   0.437630   0.099575
     3  Na   0.278739   0.077493
     4  Na  -0.429830  -0.004160
     5  Na  -0.671404   0.573786
     6  Na   0.493308   0.266396
     7  Na   0.041417  -0.109728
 Sum of Mulliken charges =  -0.00000   1.00000

 Dipole moment (field-independent basis, Debye):
    X=             -0.1992    Y=              0.3002    Z=              0.2931  Tot=              0.4644
 Quadrupole moment (field-independent basis, Debye-Ang):
   XX=            -53.6072   YY=            -61.7594   ZZ=            -76.4065
   XY=             -6.8897   XZ=              1.4952   YZ=              1.6325

 Normal termination of Gaussian 16 at Mon Nov 13 15:27:25 2023.
