 Gaussian 16, Revision B.01,
 Gaussian 16:  ES64L-G16RevB.01 20-Dec-2017

 -------------------------
 #P B3LYP/6-311+g(d) force
 -------------------------

 ------------------------------
 Gaussian input prepared by ASE
 ------------------------------
 Symbolic Z-matrix:
 Charge =  0 Multiplicity = 2

                         Standard orientation:
 ---------------------------------------------------------------------
 Center     Atomic      Atomic             Coordinates (Angstroms)
 Number     Number       Type             X           Y           Z
 ---------------------------------------------------------------------
      1         11           0        0.086764   -1.969831    0.507960
      2         11           0        0.316885   -0.371622   -1.722587
      3         11           0       -4.173491   -0.035258   -0.085892
      4         11           0       -1.399481    0.743705    0.155129
      5         11           0        2.760458   -0.687543   -0.440274
      6         11           0        1.362783    2.061163   -0.261941
      7         11           0        1.046083    0.259386    1.847604
 ---------------------------------------------------------------------

 SCF Done:  E(UB3LYP) =  -1136.07407460     A.U. after   27 cycles

 The electronic state is 2-A.
 Alpha  occ. eigenvalues --  -38.46055 -38.44809 -38.44746 -38.44350 -38.43261
 Alpha  occ. eigenvalues --  -38.42975 -38.42457  -2.21840  -2.20970  -2.20885
 Alpha  occ. eigenvalues --   -2.20545  -2.19426  -2.19093  -2.18551  -1.15564
 Alpha  occ. eigenvalues --   -1.15482  -1.15464  -1.14900  -1.14761  -1.14603
 Alpha  occ. eigenvalues --   -1.14569  -1.14451  -1.14378  -1.14286  -1.14206
 Alpha  occ. eigenvalues --   -1.14129  -1.13178  -1.13087  -1.12999  -1.12802
 Alpha  occ. eigenvalues --   -1.12756  -1.12619  -1.12254  -1.12198  -1.12158
 Alpha  occ. eigenvalues --   -0.21065  -0.13866  -0.12185  -0.11661
 Alpha virt. eigenvalues --   -0.07519  -0.03612  -0.03545  -0.03453  -0.02686
 Alpha virt. eigenvalues --   -0.02533  -0.02488  -0.00612  -0.00481  -0.00004
 Alpha virt. eigenvalues --    0.00306   0.00363   0.00446   0.00837   0.01111

  Beta  occ. eigenvalues --  -38.46073 -38.44777 -38.44661 -38.44251 -38.43237
  Beta  occ. eigenvalues --  -38.42951 -38.42440  -2.21872  -2.20857  -2.20795
  Beta  occ. eigenvalues --   -2.20366  -2.19390  -2.19058  -2.18528  -1.15586
  Beta  occ. eigenvalues --   -1.15501  -1.15486  -1.14823  -1.14655  -1.14538
  Beta  occ. eigenvalues --   -1.14470  -1.14400  -1.14294  -1.14165  -1.14078
  Beta  occ. eigenvalues --   -1.14003  -1.13166  -1.13001  -1.12980  -1.12788
  Beta  occ. eigenvalues --   -1.12670  -1.12596  -1.12247  -1.12155  -1.12116
  Beta  occ. eigenvalues --   -0.20168  -0.13738  -0.11338
  Beta virt. eigenvalues --   -0.07787  -0.07366  -0.03492  -0.03310  -0.02900
  Beta virt. eigenvalues --   -0.02544  -0.01765  -0.01534  -0.00572  -0.00204
  Beta virt. eigenvalues --    0.00035   0.00307   0.00438   0.00584   0.00883

 Mulliken charges and spin densities:
               1          2
     1  Na  -0.009339   0.008803
     2  Na  -0.418897   0.508804
     3  Na   0.813170  -0.063909
     4  Na  -0.117354   0.267291
     5  Na   0.417972   0.089572
     6  Na  -0.288707  -0.054058
     7  Na  -0.396845   0.243498
 Sum of Mulliken charges =  -0.00000   1.00000

 Dipole moment (field-independent basis, Debye):
    X=             -0.9816    Y=             -0.2912    Z=              0.0109  Tot=              1.0240
 Quadrupole moment (field-independent basis, Debye-Ang):
   XX=            -44.8901   YY=            -77.4761   ZZ=            -68.7040
   XY=              1.3933   XZ=              0.1052   YZ=             -1.0766

 Normal termination of Gaussian 16 at Mon Nov 13 19:12:14 2023.
