 Gaussian 16, Revision B.01,
 Gaussian 16:  ES64L-G16RevB.01 20-Dec-2017

 -------------------------
 #P B3LYP/6-311+g(d) force
 -------------------------

 ------------------------------
 Gaussian input prepared by ASE
 ------------------------------
 Symbolic Z-matrix:
 Charge =  0 Multiplicity = 2

                         Standard orientation:
 ---------------------------------------------------------------------
 Center     Atomic      Atomic             Coordinates (Angstroms)
 Number     Number       Type             X           Y           Z
 ---------------------------------------------------------------------
      1         11           0       -0.875150   -0.510036   -1.663479
      2         11           0        0.915366   -0.515013    1.670322
      3         11           0        1.889194   -1.483457   -0.999814
      4         11           0        2.876602    1.119112    0.108103
      5         11           0       -0.032978    1.824373    0.035610
      6         11           0       -2.923919    1.056746   -0.153215
      7         11           0       -1.849115   -1.491724    1.002474
 ---------------------------------------------------------------------

 SCF Done:  E(UB3LYP) =  -1136.10242020     A.U. after   21 cycles

 The electronic state is 2-A.
 Alpha  occ. eigenvalues --  -38.44359 -38.44292 -38.43949 -38.43939 -38.43795
 Alpha  occ. eigenvalues --  -38.43777 -38.42797  -2.20342  -2.20276  -2.20059
 Alpha  occ. eigenvalues --   -2.20049  -2.19796  -2.19779  -2.18870  -1.14117
 Alpha  occ. eigenvalues --   -1.14061  -1.14012  -1.13989  -1.13950  -1.13924
 Alpha  occ. eigenvalues --   -1.13811  -1.13761  -1.13728  -1.13712  -1.13680
 Alpha  occ. eigenvalues --   -1.13665  -1.13428  -1.13412  -1.13409  -1.13399
 Alpha  occ. eigenvalues --   -1.13373  -1.13356  -1.12559  -1.12528  -1.12492
 Alpha  occ. eigenvalues --   -0.20489  -0.14709  -0.11951  -0.11574
 Alpha virt. eigenvalues --   -0.06369  -0.04742  -0.04407  -0.03464  -0.02656
 Alpha virt. eigenvalues --   -0.02408  -0.01924  -0.00654  -0.00258   0.00247
 Alpha virt. eigenvalues --    0.00412   0.00521   0.00740   0.00929   0.00996

  Beta  occ. eigenvalues --  -38.44355 -38.44288 -38.43880 -38.43869 -38.43761
  Beta  occ. eigenvalues --  -38.43743 -38.42782  -2.20337  -2.20271  -2.19935
  Beta  occ. eigenvalues --   -2.19924  -2.19736  -2.19719  -2.18849  -1.14103
  Beta  occ. eigenvalues --   -1.14045  -1.14002  -1.13971  -1.13939  -1.13904
  Beta  occ. eigenvalues --   -1.13739  -1.13675  -1.13648  -1.13638  -1.13595
  Beta  occ. eigenvalues --   -1.13577  -1.13373  -1.13362  -1.13354  -1.13338
  Beta  occ. eigenvalues --   -1.13327  -1.13309  -1.12553  -1.12487  -1.12457
  Beta  occ. eigenvalues --   -0.19726  -0.14496  -0.11279
  Beta virt. eigenvalues --   -0.07768  -0.06231  -0.04781  -0.03610  -0.03128
  Beta virt. eigenvalues --   -0.01910  -0.01845  -0.01576  -0.00587  -0.00011
  Beta virt. eigenvalues --    0.00275   0.00409   0.00537   0.00889   0.00945

 Mulliken charges and spin densities:
               1          2
     1  Na  -0.646911   0.161581
     2  Na  -0.497933   0.158027
     3  Na   0.109497   0.177349
     4  Na   0.448558   0.054205
     5  Na  -0.057766   0.228150
     6  Na   0.725451   0.050688
     7  Na  -0.080896   0.170001
 Sum of Mulliken charges =  -0.00000   1.00000

 Dipole moment (field-independent basis, Debye):
    X=             -0.0314    Y=             -0.1872    Z=             -0.0115  Tot=              0.1902
 Quadrupole moment (field-independent basis, Debye-Ang):
   XX=            -50.3648   YY=            -76.3463   ZZ=            -69.1212
   XY=             -0.0168   XZ=             -1.4380   YZ=             -0.1187

 Normal termination of Gaussian 16 at Mon Nov 13 17:06:37 2023.
