 Gaussian 16, Revision B.01,
 Gaussian 16:  ES64L-G16RevB.01 20-Dec-2017

 -------------------------
 #P B3LYP/6-311+g(d) force
 -------------------------

 ------------------------------
 Gaussian input prepared by ASE
 ------------------------------
 Symbolic Z-matrix:
 Charge =  0 Multiplicity = 2

                         Standard orientation:
 ---------------------------------------------------------------------
 Center     Atomic      Atomic             Coordinates (Angstroms)
 Number     Number       Type             X           Y           Z
 ---------------------------------------------------------------------
      1         11           0       -0.860491   -1.424435   -0.452964
      2         11           0       -3.436913   -0.010055   -1.040416
      3         11           0       -2.422955   -0.165314    1.777886
      4         11           0       -1.017004    1.562536   -0.228800
      5         11           0        1.891419    2.296558   -0.086465
      6         11           0        3.858168    0.040365    0.113267
      7         11           0        1.987777   -2.299656   -0.082507
 ---------------------------------------------------------------------

 SCF Done:  E(UB3LYP) =  -1136.09054673     A.U. after   48 cycles

 The electronic state is 2-A.
 Alpha  occ. eigenvalues --  -38.45964 -38.45175 -38.44396 -38.44355 -38.44217
 Alpha  occ. eigenvalues --  -38.43622 -38.43531  -2.21823  -2.21183  -2.20420
 Alpha  occ. eigenvalues --   -2.20397  -2.20266  -2.19494  -2.19403  -1.15505
 Alpha  occ. eigenvalues --   -1.15491  -1.15468  -1.14912  -1.14831  -1.14827
 Alpha  occ. eigenvalues --   -1.14256  -1.14129  -1.14094  -1.14068  -1.14027
 Alpha  occ. eigenvalues --   -1.13942  -1.13935  -1.13878  -1.13850  -1.13188
 Alpha  occ. eigenvalues --   -1.13146  -1.13116  -1.13100  -1.13053  -1.13027
 Alpha  occ. eigenvalues --   -0.19432  -0.15216  -0.11913  -0.10547
 Alpha virt. eigenvalues --   -0.07835  -0.05985  -0.04203  -0.03580  -0.02927
 Alpha virt. eigenvalues --   -0.02032  -0.01790  -0.01524  -0.00766  -0.00272
 Alpha virt. eigenvalues --   -0.00107   0.00053   0.00466   0.00584   0.00706

  Beta  occ. eigenvalues --  -38.45967 -38.45115 -38.44331 -38.44307 -38.44189
  Beta  occ. eigenvalues --  -38.43628 -38.43535  -2.21830  -2.21077  -2.20368
  Beta  occ. eigenvalues --   -2.20252  -2.20221  -2.19505  -2.19411  -1.15516
  Beta  occ. eigenvalues --   -1.15494  -1.15470  -1.14851  -1.14754  -1.14718
  Beta  occ. eigenvalues --   -1.14209  -1.14095  -1.14021  -1.13987  -1.13913
  Beta  occ. eigenvalues --   -1.13897  -1.13846  -1.13840  -1.13758  -1.13197
  Beta  occ. eigenvalues --   -1.13154  -1.13119  -1.13103  -1.13058  -1.13027
  Beta  occ. eigenvalues --   -0.18695  -0.15127  -0.11820
  Beta virt. eigenvalues --   -0.07677  -0.06251  -0.05775  -0.04081  -0.03260
  Beta virt. eigenvalues --   -0.02842  -0.01588  -0.01141  -0.01138  -0.00183
  Beta virt. eigenvalues --   -0.00131  -0.00036   0.00120   0.00637   0.00675

 Mulliken charges and spin densities:
               1          2
     1  Na  -1.230544   0.303036
     2  Na   3.231215   0.180084
     3  Na  -0.475584   0.282440
     4  Na  -0.566545   0.381403
     5  Na  -0.113122  -0.116149
     6  Na  -0.655219   0.010360
     7  Na  -0.190200  -0.041174
 Sum of Mulliken charges =  -0.00000   1.00000

 Dipole moment (field-independent basis, Debye):
    X=              0.1612    Y=             -0.0675    Z=              0.3497  Tot=              0.3909
 Quadrupole moment (field-independent basis, Debye-Ang):
   XX=            -43.5276   YY=            -76.0936   ZZ=            -76.5872
   XY=              0.0656   XZ=              0.5410   YZ=             -0.2844

 Normal termination of Gaussian 16 at Mon Nov 13 15:40:25 2023.
