 Gaussian 16, Revision B.01,
 Gaussian 16:  ES64L-G16RevB.01 20-Dec-2017

 -------------------------
 #P B3LYP/6-311+g(d) force
 -------------------------

 ------------------------------
 Gaussian input prepared by ASE
 ------------------------------
 Symbolic Z-matrix:
 Charge =  0 Multiplicity = 2

                         Standard orientation:
 ---------------------------------------------------------------------
 Center     Atomic      Atomic             Coordinates (Angstroms)
 Number     Number       Type             X           Y           Z
 ---------------------------------------------------------------------
      1         11           0       -1.140759    2.610544   -0.392725
      2         11           0        2.856058    0.866133    1.115235
      3         11           0        2.981075   -0.786794   -1.377133
      4         11           0        0.320252   -0.013424   -0.230638
      5         11           0       -1.867487   -1.217008   -1.904610
      6         11           0       -2.526379    0.172077    0.668933
      7         11           0       -0.622761   -1.631527    2.120936
 ---------------------------------------------------------------------

 SCF Done:  E(UB3LYP) =  -1136.09901203     A.U. after   25 cycles

 The electronic state is 2-A.
 Alpha  occ. eigenvalues --  -38.45173 -38.45096 -38.45057 -38.43728 -38.42705
 Alpha  occ. eigenvalues --  -38.42486 -38.42425  -2.21075  -2.20981  -2.20936
 Alpha  occ. eigenvalues --   -2.19815  -2.19011  -2.18394  -2.18336  -1.14787
 Alpha  occ. eigenvalues --   -1.14770  -1.14742  -1.14671  -1.14628  -1.14626
 Alpha  occ. eigenvalues --   -1.14589  -1.14535  -1.14488  -1.13563  -1.13499
 Alpha  occ. eigenvalues --   -1.13424  -1.12768  -1.12700  -1.12647  -1.12090
 Alpha  occ. eigenvalues --   -1.12042  -1.12032  -1.11986  -1.11975  -1.11928
 Alpha  occ. eigenvalues --   -0.19121  -0.14228  -0.11691  -0.10959
 Alpha virt. eigenvalues --   -0.05898  -0.05759  -0.03666  -0.03393  -0.02516
 Alpha virt. eigenvalues --   -0.02295  -0.01810  -0.01159  -0.00290  -0.00129
 Alpha virt. eigenvalues --    0.00200   0.00383   0.00637   0.00770   0.00832

  Beta  occ. eigenvalues --  -38.45087 -38.45073 -38.45048 -38.43714 -38.42671
  Beta  occ. eigenvalues --  -38.42466 -38.42402  -2.20941  -2.20919  -2.20914
  Beta  occ. eigenvalues --   -2.19795  -2.18962  -2.18359  -2.18296  -1.14757
  Beta  occ. eigenvalues --   -1.14680  -1.14634  -1.14627  -1.14604  -1.14563
  Beta  occ. eigenvalues --   -1.14521  -1.14521  -1.14466  -1.13551  -1.13443
  Beta  occ. eigenvalues --   -1.13417  -1.12682  -1.12629  -1.12625  -1.12062
  Beta  occ. eigenvalues --   -1.12017  -1.12003  -1.11956  -1.11948  -1.11895
  Beta  occ. eigenvalues --   -0.18320  -0.14069  -0.10725
  Beta virt. eigenvalues --   -0.07826  -0.05647  -0.04991  -0.03416  -0.03231
  Beta virt. eigenvalues --   -0.01864  -0.01819  -0.01760  -0.00542  -0.00245
  Beta virt. eigenvalues --    0.00155   0.00355   0.00444   0.00645   0.00806

 Mulliken charges and spin densities:
               1          2
     1  Na   0.127530  -0.138346
     2  Na   0.581961  -0.003795
     3  Na  -0.026932  -0.106631
     4  Na  -2.198237   1.114207
     5  Na   0.340676  -0.042696
     6  Na   1.254110   0.242251
     7  Na  -0.079108  -0.064989
 Sum of Mulliken charges =  -0.00000   1.00000

 Dipole moment (field-independent basis, Debye):
    X=              1.3163    Y=             -0.3424    Z=             -0.4954  Tot=              1.4475
 Quadrupole moment (field-independent basis, Debye-Ang):
   XX=            -53.5699   YY=            -72.9850   ZZ=            -65.4180
   XY=              1.3165   XZ=              1.6916   YZ=              8.0285

 Normal termination of Gaussian 16 at Mon Nov 13 20:13:21 2023.
