 Gaussian 16, Revision B.01,
 Gaussian 16:  ES64L-G16RevB.01 20-Dec-2017

 -------------------------
 #P B3LYP/6-311+g(d) force
 -------------------------

 ------------------------------
 Gaussian input prepared by ASE
 ------------------------------
 Symbolic Z-matrix:
 Charge =  0 Multiplicity = 2

                         Standard orientation:
 ---------------------------------------------------------------------
 Center     Atomic      Atomic             Coordinates (Angstroms)
 Number     Number       Type             X           Y           Z
 ---------------------------------------------------------------------
      1         11           0        0.125932   -0.000312   -1.546895
      2         11           0       -0.842066   -2.113614   -0.200750
      3         11           0       -0.858565    2.108888   -0.200766
      4         11           0       -2.530710   -0.007852    0.210228
      5         11           0        1.988576    1.469322    0.047937
      6         11           0        0.118103   -0.000075    1.642141
      7         11           0        1.998730   -1.456358    0.048104
 ---------------------------------------------------------------------

 SCF Done:  E(UB3LYP) =  -1136.07039332     A.U. after   18 cycles

 The electronic state is 2-A.
 Alpha  occ. eigenvalues --  -38.44111 -38.44063 -38.43771 -38.43712 -38.43711
 Alpha  occ. eigenvalues --  -38.43663 -38.43659  -2.20519  -2.20201  -2.20092
 Alpha  occ. eigenvalues --   -2.19899  -2.19883  -2.19808  -2.19781  -1.14436
 Alpha  occ. eigenvalues --   -1.14417  -1.14253  -1.14097  -1.14039  -1.13909
 Alpha  occ. eigenvalues --   -1.13856  -1.13834  -1.13695  -1.13607  -1.13526
 Alpha  occ. eigenvalues --   -1.13509  -1.13460  -1.13458  -1.13433  -1.13429
 Alpha  occ. eigenvalues --   -1.13374  -1.13369  -1.13343  -1.13322  -1.13228
 Alpha  occ. eigenvalues --   -0.21908  -0.13980  -0.13311  -0.11998
 Alpha virt. eigenvalues --   -0.05121  -0.04471  -0.04233  -0.03533  -0.03145
 Alpha virt. eigenvalues --   -0.02459  -0.00995  -0.00633  -0.00009   0.00357
 Alpha virt. eigenvalues --    0.00782   0.00805   0.01030   0.01138   0.01186

  Beta  occ. eigenvalues --  -38.44050 -38.44021 -38.43695 -38.43695 -38.43681
  Beta  occ. eigenvalues --  -38.43650 -38.43646  -2.20359  -2.20183  -2.19934
  Beta  occ. eigenvalues --   -2.19877  -2.19856  -2.19789  -2.19764  -1.14346
  Beta  occ. eigenvalues --   -1.14331  -1.14168  -1.14091  -1.13982  -1.13818
  Beta  occ. eigenvalues --   -1.13772  -1.13770  -1.13641  -1.13561  -1.13483
  Beta  occ. eigenvalues --   -1.13470  -1.13439  -1.13414  -1.13387  -1.13358
  Beta  occ. eigenvalues --   -1.13336  -1.13323  -1.13288  -1.13285  -1.13223
  Beta  occ. eigenvalues --   -0.21114  -0.13592  -0.12931
  Beta virt. eigenvalues --   -0.07773  -0.05171  -0.04449  -0.04209  -0.02554
  Beta virt. eigenvalues --   -0.02205  -0.01364  -0.00925  -0.00590   0.00123
  Beta virt. eigenvalues --    0.00391   0.00746   0.00775   0.01063   0.01140

 Mulliken charges and spin densities:
               1          2
     1  Na  -0.744929   0.328329
     2  Na   0.394344   0.084833
     3  Na   0.392178   0.084213
     4  Na   0.101527   0.021729
     5  Na   0.217867   0.001703
     6  Na  -0.579220   0.477578
     7  Na   0.218233   0.001615
 Sum of Mulliken charges =  -0.00000   1.00000

 Dipole moment (field-independent basis, Debye):
    X=              0.0600    Y=              0.0023    Z=              0.2044  Tot=              0.2131
 Quadrupole moment (field-independent basis, Debye-Ang):
   XX=            -60.2901   YY=            -66.2331   ZZ=            -70.8776
   XY=              0.0033   XZ=             -0.1046   YZ=             -0.0021

 Normal termination of Gaussian 16 at Mon Nov 13 20:42:59 2023.
