 Gaussian 16, Revision B.01,
 Gaussian 16:  ES64L-G16RevB.01 20-Dec-2017

 -------------------------
 #P B3LYP/6-311+g(d) force
 -------------------------

 ------------------------------
 Gaussian input prepared by ASE
 ------------------------------
 Symbolic Z-matrix:
 Charge =  0 Multiplicity = 2

                         Standard orientation:
 ---------------------------------------------------------------------
 Center     Atomic      Atomic             Coordinates (Angstroms)
 Number     Number       Type             X           Y           Z
 ---------------------------------------------------------------------
      1         11           0        0.063017    0.025053   -1.587417
      2         11           0       -0.011551   -0.134286    1.651198
      3         11           0        2.383735   -0.395290    0.074644
      4         11           0        0.241357   -2.198793   -0.051732
      5         11           0        1.004216    2.044853   -0.098900
      6         11           0       -2.091603   -0.921054   -0.144053
      7         11           0       -1.589170    1.579518    0.156260
 ---------------------------------------------------------------------

 SCF Done:  E(UB3LYP) =  -1136.03763690     A.U. after   19 cycles

 The electronic state is 2-A.
 Alpha  occ. eigenvalues --  -38.44543 -38.44421 -38.44406 -38.44386 -38.44144
 Alpha  occ. eigenvalues --  -38.44060 -38.43888  -2.21012  -2.20827  -2.20727
 Alpha  occ. eigenvalues --   -2.20620  -2.20402  -2.20278  -2.20056  -1.15149
 Alpha  occ. eigenvalues --   -1.14967  -1.14906  -1.14764  -1.14701  -1.14683
 Alpha  occ. eigenvalues --   -1.14537  -1.14386  -1.14289  -1.14170  -1.14126
 Alpha  occ. eigenvalues --   -1.14051  -1.13998  -1.13974  -1.13920  -1.13867
 Alpha  occ. eigenvalues --   -1.13819  -1.13758  -1.13653  -1.13650  -1.13528
 Alpha  occ. eigenvalues --   -0.22573  -0.13929  -0.13626  -0.12499
 Alpha virt. eigenvalues --   -0.05112  -0.04312  -0.04229  -0.03586  -0.03436
 Alpha virt. eigenvalues --   -0.02612  -0.00772  -0.00563  -0.00041   0.00333
 Alpha virt. eigenvalues --    0.00925   0.01006   0.01126   0.01250   0.01277

  Beta  occ. eigenvalues --  -38.44447 -38.44402 -38.44367 -38.44309 -38.44125
  Beta  occ. eigenvalues --  -38.44044 -38.43875  -2.20850  -2.20722  -2.20629
  Beta  occ. eigenvalues --   -2.20594  -2.20376  -2.20257  -2.20040  -1.15098
  Beta  occ. eigenvalues --   -1.14896  -1.14857  -1.14687  -1.14594  -1.14578
  Beta  occ. eigenvalues --   -1.14459  -1.14318  -1.14217  -1.14074  -1.14041
  Beta  occ. eigenvalues --   -1.14018  -1.13978  -1.13948  -1.13866  -1.13819
  Beta  occ. eigenvalues --   -1.13752  -1.13731  -1.13645  -1.13581  -1.13524
  Beta  occ. eigenvalues --   -0.21749  -0.13513  -0.13211
  Beta virt. eigenvalues --   -0.08195  -0.05174  -0.04278  -0.04198  -0.02581
  Beta virt. eigenvalues --   -0.02443  -0.01519  -0.00714  -0.00517   0.00091
  Beta virt. eigenvalues --    0.00356   0.00898   0.00975   0.01161   0.01254

 Mulliken charges and spin densities:
               1          2
     1  Na  -0.672669   0.351342
     2  Na  -0.554929   0.423070
     3  Na   0.137143   0.000019
     4  Na   0.270784   0.042500
     5  Na   0.271880   0.055281
     6  Na   0.210791   0.039870
     7  Na   0.336999   0.087919
 Sum of Mulliken charges =  -0.00000   1.00000

 Dipole moment (field-independent basis, Debye):
    X=              0.2524    Y=              0.0316    Z=              0.1206  Tot=              0.2815
 Quadrupole moment (field-independent basis, Debye-Ang):
   XX=            -63.4782   YY=            -66.4955   ZZ=            -69.5125
   XY=              0.0287   XZ=              0.1775   YZ=              0.2859

 Normal termination of Gaussian 16 at Mon Nov 13 20:46:58 2023.
