 Gaussian 16, Revision B.01,
 Gaussian 16:  ES64L-G16RevB.01 20-Dec-2017

 -------------------------
 #P B3LYP/6-311+g(d) force
 -------------------------

 ------------------------------
 Gaussian input prepared by ASE
 ------------------------------
 Symbolic Z-matrix:
 Charge =  0 Multiplicity = 2

                         Standard orientation:
 ---------------------------------------------------------------------
 Center     Atomic      Atomic             Coordinates (Angstroms)
 Number     Number       Type             X           Y           Z
 ---------------------------------------------------------------------
      1         11           0       -0.515561   -0.414441   -1.354761
      2         11           0        0.591368    2.043835   -0.559224
      3         11           0       -3.298675   -0.168733   -0.477893
      4         11           0       -1.269379    0.614051    1.478320
      5         11           0        0.374559   -1.941439    0.828605
      6         11           0        2.271697   -0.531485   -1.256271
      7         11           0        1.845991    0.398212    1.341224
 ---------------------------------------------------------------------

 SCF Done:  E(UB3LYP) =  -1136.08362938     A.U. after   28 cycles

 The electronic state is 2-A.
 Alpha  occ. eigenvalues --  -38.44906 -38.44390 -38.44387 -38.44042 -38.43778
 Alpha  occ. eigenvalues --  -38.42768 -38.42490  -2.20812  -2.20592  -2.20495
 Alpha  occ. eigenvalues --   -2.20343  -2.19902  -2.18872  -2.18594  -1.14596
 Alpha  occ. eigenvalues --   -1.14525  -1.14503  -1.14393  -1.14384  -1.14302
 Alpha  occ. eigenvalues --   -1.14234  -1.14064  -1.14041  -1.13983  -1.13969
 Alpha  occ. eigenvalues --   -1.13856  -1.13613  -1.13531  -1.13488  -1.12590
 Alpha  occ. eigenvalues --   -1.12521  -1.12426  -1.12314  -1.12248  -1.12161
 Alpha  occ. eigenvalues --   -0.21210  -0.14118  -0.12818  -0.11599
 Alpha virt. eigenvalues --   -0.06131  -0.04421  -0.03648  -0.03451  -0.02785
 Alpha virt. eigenvalues --   -0.02624  -0.01733  -0.00604  -0.00168   0.00274
 Alpha virt. eigenvalues --    0.00505   0.00624   0.00965   0.01000   0.01027

  Beta  occ. eigenvalues --  -38.44897 -38.44344 -38.44337 -38.43975 -38.43723
  Beta  occ. eigenvalues --  -38.42741 -38.42474  -2.20798  -2.20504  -2.20417
  Beta  occ. eigenvalues --   -2.20227  -2.19808  -2.18830  -2.18571  -1.14566
  Beta  occ. eigenvalues --   -1.14506  -1.14459  -1.14383  -1.14303  -1.14214
  Beta  occ. eigenvalues --   -1.14173  -1.13985  -1.13978  -1.13921  -1.13894
  Beta  occ. eigenvalues --   -1.13771  -1.13545  -1.13440  -1.13424  -1.12566
  Beta  occ. eigenvalues --   -1.12452  -1.12394  -1.12304  -1.12200  -1.12131
  Beta  occ. eigenvalues --   -0.20330  -0.13946  -0.11321
  Beta virt. eigenvalues --   -0.08337  -0.06030  -0.03814  -0.03368  -0.03155
  Beta virt. eigenvalues --   -0.02062  -0.01820  -0.01640  -0.00276  -0.00133
  Beta virt. eigenvalues --    0.00300   0.00587   0.00769   0.00982   0.01013

 Mulliken charges and spin densities:
               1          2
     1  Na  -0.712700   0.411360
     2  Na   0.125538   0.166870
     3  Na   0.243746   0.052912
     4  Na  -0.351567   0.061899
     5  Na   0.091157   0.244673
     6  Na   0.327808  -0.164389
     7  Na   0.276018   0.226675
 Sum of Mulliken charges =  -0.00000   1.00000

 Dipole moment (field-independent basis, Debye):
    X=             -0.6291    Y=             -0.0004    Z=             -0.0216  Tot=              0.6295
 Quadrupole moment (field-independent basis, Debye-Ang):
   XX=            -53.0747   YY=            -77.5717   ZZ=            -64.1804
   XY=              0.0369   XZ=              0.0666   YZ=              0.5979

 Normal termination of Gaussian 16 at Mon Nov 13 18:12:56 2023.
