 Gaussian 16, Revision B.01,
 Gaussian 16:  ES64L-G16RevB.01 20-Dec-2017

 -------------------------
 #P B3LYP/6-311+g(d) force
 -------------------------

 ------------------------------
 Gaussian input prepared by ASE
 ------------------------------
 Symbolic Z-matrix:
 Charge =  0 Multiplicity = 2

                         Standard orientation:
 ---------------------------------------------------------------------
 Center     Atomic      Atomic             Coordinates (Angstroms)
 Number     Number       Type             X           Y           Z
 ---------------------------------------------------------------------
      1         11           0        0.029642    1.493815    0.148649
      2         11           0        0.023009   -0.159854    2.652363
      3         11           0       -2.819811    1.581644   -0.782754
      4         11           0       -2.986273   -1.406793   -0.589691
      5         11           0       -0.039141   -1.500949   -0.027476
      6         11           0        2.834960   -1.490177   -0.890168
      7         11           0        2.957613    1.482314   -0.510923
 ---------------------------------------------------------------------

 SCF Done:  E(UB3LYP) =  -1136.09910418     A.U. after   23 cycles

 The electronic state is 2-A.
 Alpha  occ. eigenvalues --  -38.45710 -38.44602 -38.44505 -38.44303 -38.44126
 Alpha  occ. eigenvalues --  -38.43048 -38.42890  -2.21622  -2.20493  -2.20401
 Alpha  occ. eigenvalues --   -2.20191  -2.20018  -2.19110  -2.18950  -1.15333
 Alpha  occ. eigenvalues --   -1.15227  -1.15197  -1.14188  -1.14185  -1.14125
 Alpha  occ. eigenvalues --   -1.14118  -1.14091  -1.14023  -1.13887  -1.13819
 Alpha  occ. eigenvalues --   -1.13792  -1.13716  -1.13649  -1.13643  -1.12873
 Alpha  occ. eigenvalues --   -1.12787  -1.12730  -1.12636  -1.12584  -1.12552
 Alpha  occ. eigenvalues --   -0.19169  -0.14424  -0.12145  -0.11210
 Alpha virt. eigenvalues --   -0.06182  -0.05747  -0.03962  -0.03325  -0.02911
 Alpha virt. eigenvalues --   -0.02796  -0.02027  -0.00857  -0.00561  -0.00344
 Alpha virt. eigenvalues --    0.00245   0.00384   0.00672   0.00700   0.00999

  Beta  occ. eigenvalues --  -38.45577 -38.44577 -38.44472 -38.44289 -38.44110
  Beta  occ. eigenvalues --  -38.43029 -38.42879  -2.21381  -2.20450  -2.20340
  Beta  occ. eigenvalues --   -2.20167  -2.19989  -2.19081  -2.18938  -1.15163
  Beta  occ. eigenvalues --   -1.15054  -1.15036  -1.14160  -1.14152  -1.14084
  Beta  occ. eigenvalues --   -1.14081  -1.14053  -1.13978  -1.13873  -1.13798
  Beta  occ. eigenvalues --   -1.13765  -1.13699  -1.13627  -1.13617  -1.12857
  Beta  occ. eigenvalues --   -1.12728  -1.12715  -1.12590  -1.12571  -1.12547
  Beta  occ. eigenvalues --   -0.18446  -0.13901  -0.11092
  Beta virt. eigenvalues --   -0.08242  -0.05827  -0.05497  -0.03399  -0.03123
  Beta virt. eigenvalues --   -0.02227  -0.02133  -0.01857  -0.00782  -0.00216
  Beta virt. eigenvalues --   -0.00200   0.00301   0.00382   0.00686   0.00823

 Mulliken charges and spin densities:
               1          2
     1  Na  -0.533309   0.272493
     2  Na   0.517523   0.180697
     3  Na   0.163724  -0.107574
     4  Na   0.116227   0.233102
     5  Na  -0.498152   0.231171
     6  Na   0.166102  -0.020716
     7  Na   0.067886   0.210827
 Sum of Mulliken charges =  -0.00000   1.00000

 Dipole moment (field-independent basis, Debye):
    X=              0.0176    Y=             -0.2527    Z=              0.6727  Tot=              0.7188
 Quadrupole moment (field-independent basis, Debye-Ang):
   XX=            -52.9622   YY=            -76.5734   ZZ=            -65.1223
   XY=              0.5659   XZ=              0.0017   YZ=              0.7823

 Normal termination of Gaussian 16 at Mon Nov 13 15:27:02 2023.
