 Gaussian 16, Revision B.01,
 Gaussian 16:  ES64L-G16RevB.01 20-Dec-2017

 -------------------------
 #P B3LYP/6-311+g(d) force
 -------------------------

 ------------------------------
 Gaussian input prepared by ASE
 ------------------------------
 Symbolic Z-matrix:
 Charge =  0 Multiplicity = 2

                         Standard orientation:
 ---------------------------------------------------------------------
 Center     Atomic      Atomic             Coordinates (Angstroms)
 Number     Number       Type             X           Y           Z
 ---------------------------------------------------------------------
      1         11           0        2.696119    1.600125   -0.457970
      2         11           0       -2.851546    1.919330   -0.030428
      3         11           0       -3.914931   -0.818921    0.588052
      4         11           0       -1.606959   -1.910473   -0.988760
      5         11           0       -0.155500    0.662128   -0.441198
      6         11           0        1.791003   -0.379998    1.592397
      7         11           0        4.041815   -1.072192   -0.262094
 ---------------------------------------------------------------------

 SCF Done:  E(UB3LYP) =  -1136.08788410     A.U. after   30 cycles

 The electronic state is 2-A.
 Alpha  occ. eigenvalues --  -38.45659 -38.44841 -38.44355 -38.44167 -38.44068
 Alpha  occ. eigenvalues --  -38.43918 -38.42665  -2.21626  -2.20819  -2.20264
 Alpha  occ. eigenvalues --   -2.20075  -2.19986  -2.19836  -2.18770  -1.15355
 Alpha  occ. eigenvalues --   -1.15302  -1.15264  -1.14522  -1.14492  -1.14457
 Alpha  occ. eigenvalues --   -1.13989  -1.13938  -1.13892  -1.13791  -1.13707
 Alpha  occ. eigenvalues --   -1.13678  -1.13652  -1.13626  -1.13599  -1.13537
 Alpha  occ. eigenvalues --   -1.13450  -1.13419  -1.12479  -1.12423  -1.12375
 Alpha  occ. eigenvalues --   -0.18720  -0.15798  -0.11094  -0.10668
 Alpha virt. eigenvalues --   -0.07033  -0.06040  -0.04174  -0.03665  -0.02979
 Alpha virt. eigenvalues --   -0.02196  -0.01463  -0.01202  -0.00791  -0.00459
 Alpha virt. eigenvalues --   -0.00341   0.00124   0.00388   0.00531   0.00666

  Beta  occ. eigenvalues --  -38.45663 -38.44844 -38.44286 -38.44129 -38.44029
  Beta  occ. eigenvalues --  -38.43850 -38.42634  -2.21637  -2.20831  -2.20138
  Beta  occ. eigenvalues --   -2.20009  -2.19915  -2.19712  -2.18718  -1.15370
  Beta  occ. eigenvalues --   -1.15283  -1.15266  -1.14532  -1.14500  -1.14438
  Beta  occ. eigenvalues --   -1.13909  -1.13844  -1.13804  -1.13731  -1.13665
  Beta  occ. eigenvalues --   -1.13608  -1.13606  -1.13588  -1.13539  -1.13441
  Beta  occ. eigenvalues --   -1.13373  -1.13330  -1.12445  -1.12388  -1.12316
  Beta  occ. eigenvalues --   -0.18149  -0.15146  -0.10618
  Beta virt. eigenvalues --   -0.07105  -0.06822  -0.05899  -0.03868  -0.03046
  Beta virt. eigenvalues --   -0.02744  -0.01761  -0.01464  -0.00898  -0.00362
  Beta virt. eigenvalues --   -0.00268   0.00022   0.00202   0.00426   0.00568

 Mulliken charges and spin densities:
               1          2
     1  Na  -0.329179   0.654041
     2  Na   0.892204   0.403113
     3  Na   0.122141   0.195991
     4  Na   0.942985   0.239587
     5  Na  -2.285880  -0.550864
     6  Na   0.307220  -0.202747
     7  Na   0.350509   0.260879
 Sum of Mulliken charges =  -0.00000   1.00000

 Dipole moment (field-independent basis, Debye):
    X=              0.6709    Y=              0.0608    Z=              0.4267  Tot=              0.7975
 Quadrupole moment (field-independent basis, Debye-Ang):
   XX=            -67.8027   YY=            -73.6703   ZZ=            -63.6366
   XY=              1.5499   XZ=             -3.0414   YZ=             -0.3669

 Normal termination of Gaussian 16 at Mon Nov 13 15:50:53 2023.
