 Gaussian 16, Revision B.01,
 Gaussian 16:  ES64L-G16RevB.01 20-Dec-2017

 -------------------------
 #P B3LYP/6-311+g(d) force
 -------------------------

 ------------------------------
 Gaussian input prepared by ASE
 ------------------------------
 Symbolic Z-matrix:
 Charge =  0 Multiplicity = 2

                         Standard orientation:
 ---------------------------------------------------------------------
 Center     Atomic      Atomic             Coordinates (Angstroms)
 Number     Number       Type             X           Y           Z
 ---------------------------------------------------------------------
      1         11           0        0.515177   -2.058727   -0.465169
      2         11           0        3.428734   -1.859093    0.210744
      3         11           0        3.357271    2.665227   -0.377264
      4         11           0        1.606947    0.477263    0.697436
      5         11           0       -1.249522    0.355975   -0.225210
      6         11           0       -3.905999    1.704173    0.131089
      7         11           0       -3.752608   -1.284818    0.028375
 ---------------------------------------------------------------------

 SCF Done:  E(UB3LYP) =  -1136.09566727     A.U. after   24 cycles

 The electronic state is 2-A.
 Alpha  occ. eigenvalues --  -38.45930 -38.44873 -38.43957 -38.43816 -38.43520
 Alpha  occ. eigenvalues --  -38.42995 -38.42739  -2.21819  -2.20779  -2.19926
 Alpha  occ. eigenvalues --   -2.19879  -2.19311  -2.19084  -2.18737  -1.15530
 Alpha  occ. eigenvalues --   -1.15466  -1.15456  -1.14479  -1.14413  -1.14400
 Alpha  occ. eigenvalues --   -1.13654  -1.13593  -1.13575  -1.13543  -1.13516
 Alpha  occ. eigenvalues --   -1.13474  -1.13061  -1.12969  -1.12952  -1.12787
 Alpha  occ. eigenvalues --   -1.12758  -1.12682  -1.12416  -1.12374  -1.12359
 Alpha  occ. eigenvalues --   -0.18412  -0.15429  -0.11274  -0.10684
 Alpha virt. eigenvalues --   -0.07029  -0.05273  -0.03936  -0.03844  -0.02978
 Alpha virt. eigenvalues --   -0.02473  -0.01625  -0.01076  -0.00734  -0.00100
 Alpha virt. eigenvalues --   -0.00075   0.00078   0.00290   0.00495   0.00549

  Beta  occ. eigenvalues --  -38.45908 -38.44841 -38.43867 -38.43751 -38.43537
  Beta  occ. eigenvalues --  -38.42966 -38.42721  -2.21784  -2.20721  -2.19816
  Beta  occ. eigenvalues --   -2.19712  -2.19344  -2.19040  -2.18715  -1.15515
  Beta  occ. eigenvalues --   -1.15445  -1.15392  -1.14445  -1.14364  -1.14355
  Beta  occ. eigenvalues --   -1.13550  -1.13493  -1.13490  -1.13469  -1.13400
  Beta  occ. eigenvalues --   -1.13357  -1.13077  -1.12992  -1.12967  -1.12749
  Beta  occ. eigenvalues --   -1.12677  -1.12665  -1.12378  -1.12354  -1.12314
  Beta  occ. eigenvalues --   -0.17640  -0.14834  -0.11123
  Beta virt. eigenvalues --   -0.06964  -0.06870  -0.05036  -0.03692  -0.03242
  Beta virt. eigenvalues --   -0.02789  -0.01941  -0.01349  -0.00964  -0.00388
  Beta virt. eigenvalues --   -0.00002   0.00098   0.00333   0.00336   0.00617

 Mulliken charges and spin densities:
               1          2
     1  Na   0.125654  -0.026411
     2  Na   0.176101   0.499709
     3  Na   0.078393  -0.057302
     4  Na   0.023028   0.019468
     5  Na  -2.050902  -0.110616
     6  Na   0.682790   0.437747
     7  Na   0.964936   0.237404
 Sum of Mulliken charges =  -0.00000   1.00000

 Dipole moment (field-independent basis, Debye):
    X=             -2.4223    Y=             -0.4886    Z=             -0.3050  Tot=              2.4899
 Quadrupole moment (field-independent basis, Debye-Ang):
   XX=            -59.7110   YY=            -66.5666   ZZ=            -70.4362
   XY=              2.8129   XZ=             -1.8181   YZ=             -1.1052

 Normal termination of Gaussian 16 at Mon Nov 13 17:16:47 2023.
