 Gaussian 16, Revision B.01,
 Gaussian 16:  ES64L-G16RevB.01 20-Dec-2017

 -------------------------
 #P B3LYP/6-311+g(d) force
 -------------------------

 ------------------------------
 Gaussian input prepared by ASE
 ------------------------------
 Symbolic Z-matrix:
 Charge =  0 Multiplicity = 2

                         Standard orientation:
 ---------------------------------------------------------------------
 Center     Atomic      Atomic             Coordinates (Angstroms)
 Number     Number       Type             X           Y           Z
 ---------------------------------------------------------------------
      1         11           0       -0.775222   -1.641813   -0.674380
      2         11           0        0.557423   -0.648753    1.819316
      3         11           0        4.514033    0.782702    0.010429
      4         11           0        2.127046   -0.879277   -0.719468
      5         11           0        0.020377    1.239698   -0.448174
      6         11           0       -2.844168    2.026861   -0.000446
      7         11           0       -3.599489   -0.879417    0.012722
 ---------------------------------------------------------------------

 SCF Done:  E(UB3LYP) =  -1136.09019779     A.U. after   34 cycles

 The electronic state is 2-A.
 Alpha  occ. eigenvalues --  -38.45674 -38.44459 -38.44286 -38.43987 -38.43950
 Alpha  occ. eigenvalues --  -38.43577 -38.43323  -2.21651  -2.20375  -2.20360
 Alpha  occ. eigenvalues --   -2.20046  -2.19832  -2.19476  -2.19419  -1.15396
 Alpha  occ. eigenvalues --   -1.15305  -1.15257  -1.14134  -1.14067  -1.14036
 Alpha  occ. eigenvalues --   -1.14024  -1.13992  -1.13989  -1.13808  -1.13703
 Alpha  occ. eigenvalues --   -1.13667  -1.13463  -1.13459  -1.13423  -1.13152
 Alpha  occ. eigenvalues --   -1.13126  -1.13103  -1.13101  -1.13056  -1.13008
 Alpha  occ. eigenvalues --   -0.19694  -0.14886  -0.11604  -0.10968
 Alpha virt. eigenvalues --   -0.07669  -0.05257  -0.04188  -0.03457  -0.03053
 Alpha virt. eigenvalues --   -0.01974  -0.01750  -0.01638  -0.00765  -0.00554
 Alpha virt. eigenvalues --   -0.00122   0.00182   0.00501   0.00596   0.00766

  Beta  occ. eigenvalues --  -38.45665 -38.44392 -38.44251 -38.43930 -38.43910
  Beta  occ. eigenvalues --  -38.43570 -38.43288  -2.21637  -2.20302  -2.20252
  Beta  occ. eigenvalues --   -2.20018  -2.19690  -2.19465  -2.19358  -1.15370
  Beta  occ. eigenvalues --   -1.15297  -1.15251  -1.14073  -1.13984  -1.13969
  Beta  occ. eigenvalues --   -1.13968  -1.13948  -1.13911  -1.13735  -1.13674
  Beta  occ. eigenvalues --   -1.13659  -1.13366  -1.13362  -1.13337  -1.13136
  Beta  occ. eigenvalues --   -1.13119  -1.13079  -1.13043  -1.13015  -1.12967
  Beta  occ. eigenvalues --   -0.19184  -0.14209  -0.11261
  Beta virt. eigenvalues --   -0.07510  -0.07374  -0.04954  -0.03608  -0.03164
  Beta virt. eigenvalues --   -0.02825  -0.01847  -0.01370  -0.01252  -0.00434
  Beta virt. eigenvalues --   -0.00180   0.00056   0.00287   0.00630   0.00678

 Mulliken charges and spin densities:
               1          2
     1  Na   0.254433   0.158484
     2  Na  -0.024828  -0.095622
     3  Na   0.635057   0.241071
     4  Na   0.087224   0.378848
     5  Na  -1.613288  -0.190342
     6  Na   0.426236   0.004358
     7  Na   0.235166   0.503203
 Sum of Mulliken charges =  -0.00000   1.00000

 Dipole moment (field-independent basis, Debye):
    X=             -0.2077    Y=             -0.2039    Z=              1.5267  Tot=              1.5542
 Quadrupole moment (field-independent basis, Debye-Ang):
   XX=            -67.5557   YY=            -75.2191   ZZ=            -63.0845
   XY=             -0.0766   XZ=              0.7896   YZ=             -0.4741

 Normal termination of Gaussian 16 at Mon Nov 13 16:13:46 2023.
