 Gaussian 16, Revision B.01,
 Gaussian 16:  ES64L-G16RevB.01 20-Dec-2017

 -------------------------
 #P B3LYP/6-311+g(d) force
 -------------------------

 ------------------------------
 Gaussian input prepared by ASE
 ------------------------------
 Symbolic Z-matrix:
 Charge =  0 Multiplicity = 2

                         Standard orientation:
 ---------------------------------------------------------------------
 Center     Atomic      Atomic             Coordinates (Angstroms)
 Number     Number       Type             X           Y           Z
 ---------------------------------------------------------------------
      1         11           0       -2.435990    2.140471    0.886883
      2         11           0        1.314164    2.059448   -1.547550
      3         11           0        4.214446   -0.653137    1.634617
      4         11           0        2.377034   -0.621958   -0.734266
      5         11           0       -0.471107    0.109124   -0.128050
      6         11           0       -3.040358   -0.784632    1.135108
      7         11           0       -1.958190   -2.249315   -1.246741
 ---------------------------------------------------------------------

 SCF Done:  E(UB3LYP) =  -1136.09981973     A.U. after   24 cycles

 The electronic state is 2-A.
 Alpha  occ. eigenvalues --  -38.44827 -38.44312 -38.44176 -38.43842 -38.43497
 Alpha  occ. eigenvalues --  -38.43418 -38.43310  -2.20667  -2.20210  -2.20167
 Alpha  occ. eigenvalues --   -2.19812  -2.19507  -2.19402  -2.19324  -1.14348
 Alpha  occ. eigenvalues --   -1.14281  -1.14277  -1.13978  -1.13909  -1.13855
 Alpha  occ. eigenvalues --   -1.13838  -1.13824  -1.13809  -1.13558  -1.13467
 Alpha  occ. eigenvalues --   -1.13423  -1.13263  -1.13210  -1.13154  -1.13045
 Alpha  occ. eigenvalues --   -1.13030  -1.12994  -1.12954  -1.12945  -1.12918
 Alpha  occ. eigenvalues --   -0.18350  -0.14881  -0.11780  -0.11428
 Alpha virt. eigenvalues --   -0.05662  -0.05249  -0.04626  -0.03405  -0.02761
 Alpha virt. eigenvalues --   -0.02175  -0.02052  -0.01039  -0.00866  -0.00002
 Alpha virt. eigenvalues --    0.00167   0.00205   0.00282   0.00538   0.00714

  Beta  occ. eigenvalues --  -38.44722 -38.44277 -38.44157 -38.43833 -38.43467
  Beta  occ. eigenvalues --  -38.43387 -38.43292  -2.20473  -2.20147  -2.20137
  Beta  occ. eigenvalues --   -2.19808  -2.19479  -2.19348  -2.19269  -1.14220
  Beta  occ. eigenvalues --   -1.14149  -1.14145  -1.13934  -1.13886  -1.13821
  Beta  occ. eigenvalues --   -1.13795  -1.13784  -1.13778  -1.13547  -1.13428
  Beta  occ. eigenvalues --   -1.13401  -1.13224  -1.13191  -1.13119  -1.13001
  Beta  occ. eigenvalues --   -1.12992  -1.12958  -1.12921  -1.12907  -1.12881
  Beta  occ. eigenvalues --   -0.17843  -0.14135  -0.11174
  Beta virt. eigenvalues --   -0.08041  -0.05499  -0.04780  -0.04334  -0.03201
  Beta virt. eigenvalues --   -0.02427  -0.01741  -0.01582  -0.00906  -0.00498
  Beta virt. eigenvalues --    0.00205   0.00271   0.00331   0.00473   0.00606

 Mulliken charges and spin densities:
               1          2
     1  Na   0.804498   0.103214
     2  Na   1.323879   0.217031
     3  Na   0.331529   0.523060
     4  Na   0.367826  -0.145595
     5  Na  -3.987101   0.429195
     6  Na   0.317287  -0.116194
     7  Na   0.842082  -0.010711
 Sum of Mulliken charges =  -0.00000   1.00000

 Dipole moment (field-independent basis, Debye):
    X=              0.0909    Y=              0.5400    Z=             -0.0163  Tot=              0.5479
 Quadrupole moment (field-independent basis, Debye-Ang):
   XX=            -61.0398   YY=            -70.8272   ZZ=            -64.0245
   XY=              3.1570   XZ=             -0.8671   YZ=             -1.6028

 Normal termination of Gaussian 16 at Mon Nov 13 17:48:26 2023.
