 Gaussian 16, Revision B.01,
 Gaussian 16:  ES64L-G16RevB.01 20-Dec-2017

 -------------------------
 #P B3LYP/6-311+g(d) force
 -------------------------

 ------------------------------
 Gaussian input prepared by ASE
 ------------------------------
 Symbolic Z-matrix:
 Charge =  0 Multiplicity = 2

                         Standard orientation:
 ---------------------------------------------------------------------
 Center     Atomic      Atomic             Coordinates (Angstroms)
 Number     Number       Type             X           Y           Z
 ---------------------------------------------------------------------
      1         11           0        1.645511    0.860153   -1.035252
      2         11           0        1.652462   -2.140640   -1.054882
      3         11           0       -3.625672   -1.297795    0.321252
      4         11           0       -0.708320   -0.645466    0.050442
      5         11           0        1.896382   -0.655240    1.539718
      6         11           0        0.245159    1.843699    1.425089
      7         11           0       -1.105521    2.035290   -1.246368
 ---------------------------------------------------------------------

 SCF Done:  E(UB3LYP) =  -1136.09822506     A.U. after   22 cycles

 The electronic state is 2-A.
 Alpha  occ. eigenvalues --  -38.44048 -38.43956 -38.43861 -38.43822 -38.43620
 Alpha  occ. eigenvalues --  -38.43619 -38.42450  -2.20140  -2.19946  -2.19851
 Alpha  occ. eigenvalues --   -2.19810  -2.19706  -2.19618  -2.18714  -1.13954
 Alpha  occ. eigenvalues --   -1.13841  -1.13784  -1.13780  -1.13636  -1.13616
 Alpha  occ. eigenvalues --   -1.13563  -1.13508  -1.13493  -1.13438  -1.13430
 Alpha  occ. eigenvalues --   -1.13386  -1.13333  -1.13324  -1.13285  -1.13264
 Alpha  occ. eigenvalues --   -1.13249  -1.13241  -1.12393  -1.12376  -1.12327
 Alpha  occ. eigenvalues --   -0.20449  -0.13354  -0.12293  -0.11924
 Alpha virt. eigenvalues --   -0.05683  -0.04820  -0.03975  -0.03216  -0.02943
 Alpha virt. eigenvalues --   -0.02416  -0.01272  -0.00868  -0.00540   0.00252
 Alpha virt. eigenvalues --    0.00476   0.00546   0.00719   0.00896   0.01016

  Beta  occ. eigenvalues --  -38.43990 -38.43921 -38.43834 -38.43825 -38.43571
  Beta  occ. eigenvalues --  -38.43569 -38.42425  -2.20038  -2.19884  -2.19801
  Beta  occ. eigenvalues --   -2.19726  -2.19624  -2.19621  -2.18677  -1.13895
  Beta  occ. eigenvalues --   -1.13754  -1.13732  -1.13707  -1.13574  -1.13555
  Beta  occ. eigenvalues --   -1.13521  -1.13458  -1.13454  -1.13397  -1.13355
  Beta  occ. eigenvalues --   -1.13328  -1.13315  -1.13274  -1.13266  -1.13253
  Beta  occ. eigenvalues --   -1.13209  -1.13171  -1.12366  -1.12313  -1.12287
  Beta  occ. eigenvalues --   -0.19559  -0.13184  -0.11910
  Beta virt. eigenvalues --   -0.07746  -0.05477  -0.04706  -0.03528  -0.02905
  Beta virt. eigenvalues --   -0.02184  -0.01685  -0.01154  -0.00807  -0.00170
  Beta virt. eigenvalues --    0.00315   0.00493   0.00600   0.00812   0.00912

 Mulliken charges and spin densities:
               1          2
     1  Na   0.576281   0.948083
     2  Na   1.560207  -0.164279
     3  Na   0.070008  -0.639817
     4  Na  -3.319053   0.932548
     5  Na   0.289817   0.125145
     6  Na  -0.000738   0.041409
     7  Na   0.823478  -0.243090
 Sum of Mulliken charges =  -0.00000   1.00000

 Dipole moment (field-independent basis, Debye):
    X=              0.3525    Y=              0.2739    Z=             -0.0950  Tot=              0.4564
 Quadrupole moment (field-independent basis, Debye-Ang):
   XX=            -60.9624   YY=            -66.3546   ZZ=            -65.6547
   XY=             -3.5549   XZ=              0.2057   YZ=              0.0809

 Normal termination of Gaussian 16 at Mon Nov 13 20:17:08 2023.
