 Gaussian 16, Revision B.01,
 Gaussian 16:  ES64L-G16RevB.01 20-Dec-2017

 -------------------------
 #P B3LYP/6-311+g(d) force
 -------------------------

 ------------------------------
 Gaussian input prepared by ASE
 ------------------------------
 Symbolic Z-matrix:
 Charge =  0 Multiplicity = 2

                         Standard orientation:
 ---------------------------------------------------------------------
 Center     Atomic      Atomic             Coordinates (Angstroms)
 Number     Number       Type             X           Y           Z
 ---------------------------------------------------------------------
      1         11           0        3.639921   -1.110864   -0.699726
      2         11           0        1.051792   -2.481416   -0.047335
      3         11           0       -1.771003   -2.197082    0.923828
      4         11           0       -3.824517   -0.557300   -0.521656
      5         11           0       -2.499001    2.135404   -0.501287
      6         11           0        0.270428    2.524129    0.581948
      7         11           0        3.132379    1.687130    0.264228
 ---------------------------------------------------------------------

 SCF Done:  E(UB3LYP) =  -1136.10319275     A.U. after   23 cycles

 The electronic state is 2-A.
 Alpha  occ. eigenvalues --  -38.45273 -38.44804 -38.44607 -38.44472 -38.44174
 Alpha  occ. eigenvalues --  -38.43979 -38.43481  -2.21146  -2.20679  -2.20504
 Alpha  occ. eigenvalues --   -2.20348  -2.20064  -2.19885  -2.19366  -1.14863
 Alpha  occ. eigenvalues --   -1.14807  -1.14787  -1.14442  -1.14354  -1.14322
 Alpha  occ. eigenvalues --   -1.14210  -1.14131  -1.14124  -1.14107  -1.13993
 Alpha  occ. eigenvalues --   -1.13988  -1.13718  -1.13695  -1.13673  -1.13545
 Alpha  occ. eigenvalues --   -1.13506  -1.13494  -1.13069  -1.12991  -1.12974
 Alpha  occ. eigenvalues --   -0.17273  -0.14921  -0.13412  -0.10575
 Alpha virt. eigenvalues --   -0.07451  -0.04561  -0.04150  -0.04059  -0.03639
 Alpha virt. eigenvalues --   -0.02359  -0.01945  -0.01236  -0.00826  -0.00539
 Alpha virt. eigenvalues --   -0.00173   0.00133   0.00330   0.00704   0.00759

  Beta  occ. eigenvalues --  -38.45251 -38.44786 -38.44562 -38.44444 -38.44140
  Beta  occ. eigenvalues --  -38.43924 -38.43442  -2.21114  -2.20653  -2.20423
  Beta  occ. eigenvalues --   -2.20305  -2.20007  -2.19783  -2.19295  -1.14796
  Beta  occ. eigenvalues --   -1.14781  -1.14772  -1.14381  -1.14334  -1.14310
  Beta  occ. eigenvalues --   -1.14152  -1.14071  -1.14056  -1.14048  -1.13969
  Beta  occ. eigenvalues --   -1.13965  -1.13661  -1.13657  -1.13630  -1.13471
  Beta  occ. eigenvalues --   -1.13444  -1.13425  -1.13023  -1.12944  -1.12925
  Beta  occ. eigenvalues --   -0.16772  -0.14232  -0.12798
  Beta virt. eigenvalues --   -0.07580  -0.07165  -0.04344  -0.03937  -0.03411
  Beta virt. eigenvalues --   -0.03005  -0.02120  -0.01790  -0.01095  -0.00523
  Beta virt. eigenvalues --   -0.00393   0.00071   0.00311   0.00518   0.00736

 Mulliken charges and spin densities:
               1          2
     1  Na   0.724426   0.349107
     2  Na  -0.891750   0.068115
     3  Na  -0.422469   0.071631
     4  Na   0.488734   0.123993
     5  Na   0.249259   0.265121
     6  Na  -0.509985   0.000881
     7  Na   0.361786   0.121152
 Sum of Mulliken charges =  -0.00000   1.00000

 Dipole moment (field-independent basis, Debye):
    X=             -0.0613    Y=             -0.0335    Z=             -0.1035  Tot=              0.1248
 Quadrupole moment (field-independent basis, Debye-Ang):
   XX=            -62.1392   YY=            -69.7923   ZZ=            -70.7283
   XY=              3.3899   XZ=              0.1523   YZ=              0.2235

 Normal termination of Gaussian 16 at Mon Nov 13 14:49:53 2023.
