 Gaussian 16, Revision B.01,
 Gaussian 16:  ES64L-G16RevB.01 20-Dec-2017

 -------------------------
 #P B3LYP/6-311+g(d) force
 -------------------------

 ------------------------------
 Gaussian input prepared by ASE
 ------------------------------
 Symbolic Z-matrix:
 Charge =  0 Multiplicity = 2

                         Standard orientation:
 ---------------------------------------------------------------------
 Center     Atomic      Atomic             Coordinates (Angstroms)
 Number     Number       Type             X           Y           Z
 ---------------------------------------------------------------------
      1         11           0        0.202273    0.993951   -1.225459
      2         11           0       -2.666165    0.127923   -1.227970
      3         11           0       -1.667204    1.961411    0.920839
      4         11           0       -2.323699   -0.897894    1.565693
      5         11           0       -0.504252   -1.858039   -0.622086
      6         11           0        2.085083   -0.710764    0.371848
      7         11           0        4.873964    0.383411    0.217135
 ---------------------------------------------------------------------

 SCF Done:  E(UB3LYP) =  -1136.08822361     A.U. after   33 cycles

 The electronic state is 2-A.
 Alpha  occ. eigenvalues --  -38.45494 -38.45395 -38.44509 -38.44397 -38.43768
 Alpha  occ. eigenvalues --  -38.43021 -38.42279  -2.21474  -2.21285  -2.20529
 Alpha  occ. eigenvalues --   -2.20488  -2.19730  -2.19018  -2.18363  -1.15214
 Alpha  occ. eigenvalues --   -1.15186  -1.15077  -1.14980  -1.14929  -1.14917
 Alpha  occ. eigenvalues --   -1.14207  -1.14194  -1.14175  -1.14140  -1.14127
 Alpha  occ. eigenvalues --   -1.14111  -1.13454  -1.13362  -1.13357  -1.12709
 Alpha  occ. eigenvalues --   -1.12667  -1.12641  -1.12051  -1.12026  -1.11994
 Alpha  occ. eigenvalues --   -0.20081  -0.14367  -0.11779  -0.11412
 Alpha virt. eigenvalues --   -0.07918  -0.04104  -0.03989  -0.03240  -0.03152
 Alpha virt. eigenvalues --   -0.02513  -0.02296  -0.00986  -0.00788  -0.00281
 Alpha virt. eigenvalues --    0.00039   0.00126   0.00325   0.00694   0.00938

  Beta  occ. eigenvalues --  -38.45483 -38.45368 -38.44416 -38.44315 -38.43770
  Beta  occ. eigenvalues --  -38.42999 -38.42266  -2.21436  -2.21264  -2.20360
  Beta  occ. eigenvalues --   -2.20343  -2.19735  -2.18984  -2.18347  -1.15195
  Beta  occ. eigenvalues --   -1.15085  -1.15054  -1.14964  -1.14914  -1.14904
  Beta  occ. eigenvalues --   -1.14109  -1.14100  -1.14055  -1.14036  -1.14002
  Beta  occ. eigenvalues --   -1.13993  -1.13444  -1.13372  -1.13358  -1.12694
  Beta  occ. eigenvalues --   -1.12629  -1.12589  -1.12044  -1.12025  -1.11929
  Beta  occ. eigenvalues --   -0.19272  -0.14052  -0.11073
  Beta virt. eigenvalues --   -0.08047  -0.07384  -0.04053  -0.03448  -0.03096
  Beta virt. eigenvalues --   -0.02864  -0.01837  -0.01481  -0.00913  -0.00521
  Beta virt. eigenvalues --   -0.00168   0.00130   0.00189   0.00417   0.00756

 Mulliken charges and spin densities:
               1          2
     1  Na  -0.411082   0.408439
     2  Na   0.866349  -0.017058
     3  Na  -0.119397   0.080551
     4  Na  -0.054490   0.428361
     5  Na   0.349317   0.299856
     6  Na  -0.976548  -0.256009
     7  Na   0.345851   0.055860
 Sum of Mulliken charges =  -0.00000   1.00000

 Dipole moment (field-independent basis, Debye):
    X=              0.6798    Y=              0.0514    Z=             -0.2179  Tot=              0.7157
 Quadrupole moment (field-independent basis, Debye-Ang):
   XX=            -49.5251   YY=            -77.9628   ZZ=            -67.0688
   XY=              4.2174   XZ=              2.8143   YZ=             -0.9574

 Normal termination of Gaussian 16 at Mon Nov 13 16:27:49 2023.
