 Gaussian 16, Revision B.01,
 Gaussian 16:  ES64L-G16RevB.01 20-Dec-2017

 -------------------------
 #P B3LYP/6-311+g(d) force
 -------------------------

 ------------------------------
 Gaussian input prepared by ASE
 ------------------------------
 Symbolic Z-matrix:
 Charge =  0 Multiplicity = 2

                         Standard orientation:
 ---------------------------------------------------------------------
 Center     Atomic      Atomic             Coordinates (Angstroms)
 Number     Number       Type             X           Y           Z
 ---------------------------------------------------------------------
      1         11           0       -0.281861   -1.859025   -1.036244
      2         11           0        4.218231   -1.274809    1.497819
      3         11           0        2.449257   -0.633339   -0.835564
      4         11           0        1.731038    2.280410   -0.802718
      5         11           0       -0.733891    2.229567    0.907342
      6         11           0       -2.425666    0.162469   -0.463380
      7         11           0       -4.957108   -0.905274    0.732744
 ---------------------------------------------------------------------

 SCF Done:  E(UB3LYP) =  -1136.09846857     A.U. after   22 cycles

 The electronic state is 2-A.
 Alpha  occ. eigenvalues --  -38.45009 -38.44806 -38.44468 -38.44438 -38.44045
 Alpha  occ. eigenvalues --  -38.43813 -38.43709  -2.20821  -2.20626  -2.20372
 Alpha  occ. eigenvalues --   -2.20309  -2.19922  -2.19778  -2.19674  -1.14508
 Alpha  occ. eigenvalues --   -1.14454  -1.14444  -1.14310  -1.14257  -1.14245
 Alpha  occ. eigenvalues --   -1.14072  -1.14037  -1.14032  -1.14004  -1.13978
 Alpha  occ. eigenvalues --   -1.13932  -1.13690  -1.13558  -1.13534  -1.13457
 Alpha  occ. eigenvalues --   -1.13411  -1.13372  -1.13348  -1.13336  -1.13299
 Alpha  occ. eigenvalues --   -0.17826  -0.14334  -0.12065  -0.11251
 Alpha virt. eigenvalues --   -0.07082  -0.04781  -0.04416  -0.03850  -0.03016
 Alpha virt. eigenvalues --   -0.02345  -0.01903  -0.01526  -0.00555  -0.00416
 Alpha virt. eigenvalues --   -0.00115  -0.00013   0.00293   0.00380   0.00604

  Beta  occ. eigenvalues --  -38.44956 -38.44738 -38.44440 -38.44373 -38.44046
  Beta  occ. eigenvalues --  -38.43807 -38.43700  -2.20723  -2.20499  -2.20313
  Beta  occ. eigenvalues --   -2.20199  -2.19922  -2.19776  -2.19669  -1.14444
  Beta  occ. eigenvalues --   -1.14387  -1.14376  -1.14228  -1.14170  -1.14157
  Beta  occ. eigenvalues --   -1.14047  -1.14007  -1.13964  -1.13927  -1.13909
  Beta  occ. eigenvalues --   -1.13857  -1.13694  -1.13558  -1.13532  -1.13422
  Beta  occ. eigenvalues --   -1.13398  -1.13367  -1.13347  -1.13305  -1.13261
  Beta  occ. eigenvalues --   -0.17242  -0.13771  -0.11666
  Beta virt. eigenvalues --   -0.07837  -0.06740  -0.04433  -0.04143  -0.03554
  Beta virt. eigenvalues --   -0.02676  -0.02118  -0.01474  -0.01191  -0.00324
  Beta virt. eigenvalues --   -0.00234   0.00007   0.00161   0.00420   0.00517

 Mulliken charges and spin densities:
               1          2
     1  Na   0.543720   0.589459
     2  Na  -0.011310   0.334038
     3  Na  -0.328491  -0.325133
     4  Na   0.707893   0.201060
     5  Na  -0.038123   0.130921
     6  Na  -0.956263  -0.113541
     7  Na   0.082574   0.183196
 Sum of Mulliken charges =  -0.00000   1.00000

 Dipole moment (field-independent basis, Debye):
    X=             -0.3230    Y=             -0.1727    Z=              0.8855  Tot=              0.9582
 Quadrupole moment (field-independent basis, Debye-Ang):
   XX=            -58.8246   YY=            -72.7634   ZZ=            -65.3625
   XY=              3.8345   XZ=             -1.4652   YZ=             -3.3241

 Normal termination of Gaussian 16 at Mon Nov 13 14:50:59 2023.
