 Gaussian 16, Revision B.01,
 Gaussian 16:  ES64L-G16RevB.01 20-Dec-2017

 -------------------------
 #P B3LYP/6-311+g(d) force
 -------------------------

 ------------------------------
 Gaussian input prepared by ASE
 ------------------------------
 Symbolic Z-matrix:
 Charge =  0 Multiplicity = 2

                         Standard orientation:
 ---------------------------------------------------------------------
 Center     Atomic      Atomic             Coordinates (Angstroms)
 Number     Number       Type             X           Y           Z
 ---------------------------------------------------------------------
      1         11           0        0.764584    2.422890   -1.818996
      2         11           0       -0.948244    1.526992    2.403251
      3         11           0       -4.697778   -0.824600    0.467231
      4         11           0       -2.416492   -0.944272   -1.469871
      5         11           0        0.015467    0.108434   -0.060172
      6         11           0        2.317471   -1.814994    0.023588
      7         11           0        4.964993   -0.474449    0.454970
 ---------------------------------------------------------------------

 SCF Done:  E(UB3LYP) =  -1136.09229295     A.U. after   23 cycles

 The electronic state is 2-A.
 Alpha  occ. eigenvalues --  -38.44787 -38.44670 -38.44587 -38.44338 -38.44102
 Alpha  occ. eigenvalues --  -38.44001 -38.43771  -2.20631  -2.20458  -2.20401
 Alpha  occ. eigenvalues --   -2.20205  -2.19900  -2.19885  -2.19822  -1.14328
 Alpha  occ. eigenvalues --   -1.14235  -1.14220  -1.14189  -1.14112  -1.14108
 Alpha  occ. eigenvalues --   -1.14100  -1.14038  -1.14024  -1.13932  -1.13826
 Alpha  occ. eigenvalues --   -1.13808  -1.13707  -1.13658  -1.13557  -1.13538
 Alpha  occ. eigenvalues --   -1.13514  -1.13492  -1.13455  -1.13421  -1.13384
 Alpha  occ. eigenvalues --   -0.17532  -0.13441  -0.11738  -0.11288
 Alpha virt. eigenvalues --   -0.07496  -0.05036  -0.03858  -0.03418  -0.03077
 Alpha virt. eigenvalues --   -0.02931  -0.02032  -0.01456  -0.01030  -0.00707
 Alpha virt. eigenvalues --   -0.00098   0.00225   0.00416   0.00568   0.00698

  Beta  occ. eigenvalues --  -38.44684 -38.44658 -38.44539 -38.44330 -38.44119
  Beta  occ. eigenvalues --  -38.43973 -38.43751  -2.20483  -2.20392  -2.20313
  Beta  occ. eigenvalues --   -2.20190  -2.19927  -2.19838  -2.19799  -1.14203
  Beta  occ. eigenvalues --   -1.14169  -1.14129  -1.14126  -1.14073  -1.14057
  Beta  occ. eigenvalues --   -1.14045  -1.13978  -1.13958  -1.13927  -1.13809
  Beta  occ. eigenvalues --   -1.13800  -1.13699  -1.13636  -1.13576  -1.13555
  Beta  occ. eigenvalues --   -1.13485  -1.13449  -1.13412  -1.13382  -1.13356
  Beta  occ. eigenvalues --   -0.16794  -0.13447  -0.11366
  Beta virt. eigenvalues --   -0.07334  -0.07246  -0.04930  -0.03442  -0.02966
  Beta virt. eigenvalues --   -0.02736  -0.02525  -0.01612  -0.01321  -0.00851
  Beta virt. eigenvalues --   -0.00527  -0.00028   0.00333   0.00550   0.00695

 Mulliken charges and spin densities:
               1          2
     1  Na   0.443195   0.240644
     2  Na   0.899986   0.488465
     3  Na  -0.271745  -0.100994
     4  Na   1.005499   0.149525
     5  Na  -2.408644   0.371692
     6  Na   0.167714  -0.082163
     7  Na   0.163996  -0.067169
 Sum of Mulliken charges =  -0.00000   1.00000

 Dipole moment (field-independent basis, Debye):
    X=              0.7388    Y=              1.3186    Z=              0.0866  Tot=              1.5139
 Quadrupole moment (field-independent basis, Debye-Ang):
   XX=            -58.9892   YY=            -68.9092   ZZ=            -69.1200
   XY=              4.3631   XZ=             -4.3549   YZ=             -0.3499

 Normal termination of Gaussian 16 at Mon Nov 13 15:17:59 2023.
