 Gaussian 16, Revision B.01,
 Gaussian 16:  ES64L-G16RevB.01 20-Dec-2017

 -------------------------
 #P B3LYP/6-311+g(d) force
 -------------------------

 ------------------------------
 Gaussian input prepared by ASE
 ------------------------------
 Symbolic Z-matrix:
 Charge =  0 Multiplicity = 2

                         Standard orientation:
 ---------------------------------------------------------------------
 Center     Atomic      Atomic             Coordinates (Angstroms)
 Number     Number       Type             X           Y           Z
 ---------------------------------------------------------------------
      1         11           0        0.077785   -0.785645   -1.534059
      2         11           0        0.762521   -1.509778    0.968684
      3         11           0       -2.075636   -1.592645    0.150744
      4         11           0       -2.415932    1.278181   -0.320106
      5         11           0        0.440821    0.983643    1.968676
      6         11           0        0.475957    1.720567   -0.631638
      7         11           0        2.734484   -0.094324   -0.602300
 ---------------------------------------------------------------------

 SCF Done:  E(UB3LYP) =  -1136.08011868     A.U. after   21 cycles

 The electronic state is 2-A.
 Alpha  occ. eigenvalues --  -38.44817 -38.44245 -38.44238 -38.43752 -38.43709
 Alpha  occ. eigenvalues --  -38.43487 -38.43410  -2.20891  -2.20541  -2.20299
 Alpha  occ. eigenvalues --   -2.19981  -2.19685  -2.19634  -2.19515  -1.14734
 Alpha  occ. eigenvalues --   -1.14649  -1.14485  -1.14407  -1.14354  -1.14221
 Alpha  occ. eigenvalues --   -1.13997  -1.13973  -1.13870  -1.13603  -1.13555
 Alpha  occ. eigenvalues --   -1.13525  -1.13465  -1.13449  -1.13306  -1.13259
 Alpha  occ. eigenvalues --   -1.13242  -1.13176  -1.13127  -1.13111  -1.13063
 Alpha  occ. eigenvalues --   -0.21310  -0.13978  -0.12751  -0.12136
 Alpha virt. eigenvalues --   -0.05415  -0.04243  -0.03866  -0.03794  -0.03149
 Alpha virt. eigenvalues --   -0.03059  -0.01402  -0.00329  -0.00206   0.00319
 Alpha virt. eigenvalues --    0.00698   0.00778   0.01038   0.01118   0.01192

  Beta  occ. eigenvalues --  -38.44726 -38.44216 -38.44177 -38.43705 -38.43704
  Beta  occ. eigenvalues --  -38.43482 -38.43378  -2.20727  -2.20423  -2.20264
  Beta  occ. eigenvalues --   -2.19902  -2.19678  -2.19586  -2.19510  -1.14626
  Beta  occ. eigenvalues --   -1.14521  -1.14420  -1.14296  -1.14252  -1.14145
  Beta  occ. eigenvalues --   -1.13957  -1.13942  -1.13817  -1.13547  -1.13490
  Beta  occ. eigenvalues --   -1.13455  -1.13448  -1.13444  -1.13277  -1.13218
  Beta  occ. eigenvalues --   -1.13175  -1.13158  -1.13095  -1.13089  -1.13063
  Beta  occ. eigenvalues --   -0.20458  -0.13664  -0.11963
  Beta virt. eigenvalues --   -0.08318  -0.05380  -0.04178  -0.03564  -0.03012
  Beta virt. eigenvalues --   -0.02435  -0.02002  -0.01300  -0.00292  -0.00024
  Beta virt. eigenvalues --    0.00354   0.00730   0.00776   0.01084   0.01107

 Mulliken charges and spin densities:
               1          2
     1  Na   0.062825   0.483141
     2  Na  -0.053535   0.297692
     3  Na   0.172818  -0.020023
     4  Na  -0.415608  -0.032604
     5  Na  -0.129922   0.329956
     6  Na  -0.182971   0.054091
     7  Na   0.546393  -0.112252
 Sum of Mulliken charges =   0.00000   1.00000

 Dipole moment (field-independent basis, Debye):
    X=             -0.0325    Y=              0.2318    Z=              0.2922  Tot=              0.3744
 Quadrupole moment (field-independent basis, Debye-Ang):
   XX=            -56.7897   YY=            -74.5324   ZZ=            -65.7631
   XY=             -0.2137   XZ=             -0.9941   YZ=             -0.7731

 Normal termination of Gaussian 16 at Mon Nov 13 19:21:21 2023.
