 Gaussian 16, Revision B.01,
 Gaussian 16:  ES64L-G16RevB.01 20-Dec-2017

 -------------------------
 #P B3LYP/6-311+g(d) force
 -------------------------

 ------------------------------
 Gaussian input prepared by ASE
 ------------------------------
 Symbolic Z-matrix:
 Charge =  0 Multiplicity = 2

                         Standard orientation:
 ---------------------------------------------------------------------
 Center     Atomic      Atomic             Coordinates (Angstroms)
 Number     Number       Type             X           Y           Z
 ---------------------------------------------------------------------
      1         11           0       -0.057277   -2.023479    0.561527
      2         11           0       -2.259463   -0.343759    0.873076
      3         11           0       -1.591313   -0.751742   -1.833983
      4         11           0       -1.121156    2.070908   -0.651535
      5         11           0        0.054057    0.804323    1.942649
      6         11           0        1.043369    0.266201   -0.608299
      7         11           0        3.931781   -0.022453   -0.283434
 ---------------------------------------------------------------------

 SCF Done:  E(UB3LYP) =  -1136.07982670     A.U. after   27 cycles

 The electronic state is 2-A.
 Alpha  occ. eigenvalues --  -38.45134 -38.44482 -38.44377 -38.44102 -38.43321
 Alpha  occ. eigenvalues --  -38.43222 -38.42905  -2.20932  -2.20689  -2.20490
 Alpha  occ. eigenvalues --   -2.20183  -2.19614  -2.19323  -2.18980  -1.14658
 Alpha  occ. eigenvalues --   -1.14607  -1.14564  -1.14558  -1.14482  -1.14315
 Alpha  occ. eigenvalues --   -1.14262  -1.14059  -1.14003  -1.13892  -1.13797
 Alpha  occ. eigenvalues --   -1.13755  -1.13437  -1.13327  -1.13217  -1.12998
 Alpha  occ. eigenvalues --   -1.12903  -1.12866  -1.12652  -1.12594  -1.12574
 Alpha  occ. eigenvalues --   -0.21050  -0.13378  -0.12946  -0.11647
 Alpha virt. eigenvalues --   -0.06606  -0.03960  -0.03486  -0.03277  -0.02981
 Alpha virt. eigenvalues --   -0.02803  -0.01955  -0.00614  -0.00304   0.00169
 Alpha virt. eigenvalues --    0.00375   0.00548   0.00604   0.00895   0.01103

  Beta  occ. eigenvalues --  -38.45136 -38.44441 -38.44296 -38.44037 -38.43291
  Beta  occ. eigenvalues --  -38.43190 -38.42876  -2.20937  -2.20624  -2.20348
  Beta  occ. eigenvalues --   -2.20065  -2.19565  -2.19271  -2.18931  -1.14658
  Beta  occ. eigenvalues --   -1.14567  -1.14561  -1.14519  -1.14415  -1.14259
  Beta  occ. eigenvalues --   -1.14181  -1.13934  -1.13920  -1.13806  -1.13720
  Beta  occ. eigenvalues --   -1.13660  -1.13394  -1.13299  -1.13144  -1.12949
  Beta  occ. eigenvalues --   -1.12843  -1.12829  -1.12622  -1.12562  -1.12506
  Beta  occ. eigenvalues --   -0.20082  -0.13165  -0.11491
  Beta virt. eigenvalues --   -0.08425  -0.06386  -0.03496  -0.03193  -0.02949
  Beta virt. eigenvalues --   -0.02329  -0.01976  -0.01811  -0.00317  -0.00260
  Beta virt. eigenvalues --    0.00223   0.00484   0.00593   0.00662   0.00926

 Mulliken charges and spin densities:
               1          2
     1  Na  -0.418585   0.075513
     2  Na   0.566084   0.280411
     3  Na  -0.310361   0.083162
     4  Na  -0.600546   0.015216
     5  Na  -0.216953   0.218653
     6  Na   0.581728   0.350821
     7  Na   0.398634  -0.023776
 Sum of Mulliken charges =  -0.00000   1.00000

 Dipole moment (field-independent basis, Debye):
    X=              0.5642    Y=              0.0372    Z=             -0.0055  Tot=              0.5655
 Quadrupole moment (field-independent basis, Debye-Ang):
   XX=            -53.2554   YY=            -75.8986   ZZ=            -63.5911
   XY=             -0.7305   XZ=              0.9349   YZ=             -2.1687

 Normal termination of Gaussian 16 at Mon Nov 13 19:30:42 2023.
