 Gaussian 16, Revision B.01,
 Gaussian 16:  ES64L-G16RevB.01 20-Dec-2017

 -------------------------
 #P B3LYP/6-311+g(d) force
 -------------------------

 ------------------------------
 Gaussian input prepared by ASE
 ------------------------------
 Symbolic Z-matrix:
 Charge =  0 Multiplicity = 2

                         Standard orientation:
 ---------------------------------------------------------------------
 Center     Atomic      Atomic             Coordinates (Angstroms)
 Number     Number       Type             X           Y           Z
 ---------------------------------------------------------------------
      1         11           0        0.113567   -1.337735   -0.835211
      2         11           0       -0.692794   -0.749564    1.984805
      3         11           0       -2.791731   -1.275487   -0.090534
      4         11           0       -2.803868    1.631260   -0.840518
      5         11           0        0.034894    1.500693    0.140408
      6         11           0        3.028960    1.522070    0.338348
      7         11           0        3.110973   -1.291237   -0.697299
 ---------------------------------------------------------------------

 SCF Done:  E(UB3LYP) =  -1136.09846901     A.U. after   27 cycles

 The electronic state is 2-A.
 Alpha  occ. eigenvalues --  -38.44857 -38.44698 -38.44588 -38.44102 -38.43784
 Alpha  occ. eigenvalues --  -38.43780 -38.43237  -2.20739  -2.20693  -2.20486
 Alpha  occ. eigenvalues --   -2.20120  -2.19845  -2.19692  -2.19304  -1.14466
 Alpha  occ. eigenvalues --   -1.14433  -1.14414  -1.14383  -1.14368  -1.14342
 Alpha  occ. eigenvalues --   -1.14192  -1.14103  -1.14086  -1.13885  -1.13726
 Alpha  occ. eigenvalues --   -1.13720  -1.13553  -1.13470  -1.13440  -1.13396
 Alpha  occ. eigenvalues --   -1.13350  -1.13310  -1.12972  -1.12955  -1.12902
 Alpha  occ. eigenvalues --   -0.19682  -0.14916  -0.11520  -0.11136
 Alpha virt. eigenvalues --   -0.06965  -0.05771  -0.03875  -0.03395  -0.02739
 Alpha virt. eigenvalues --   -0.02456  -0.01974  -0.01209  -0.00368  -0.00213
 Alpha virt. eigenvalues --    0.00102   0.00317   0.00628   0.00668   0.00740

  Beta  occ. eigenvalues --  -38.44852 -38.44681 -38.44556 -38.44009 -38.43767
  Beta  occ. eigenvalues --  -38.43750 -38.43213  -2.20732  -2.20666  -2.20427
  Beta  occ. eigenvalues --   -2.19950  -2.19817  -2.19637  -2.19267  -1.14450
  Beta  occ. eigenvalues --   -1.14427  -1.14398  -1.14355  -1.14348  -1.14301
  Beta  occ. eigenvalues --   -1.14150  -1.14060  -1.14051  -1.13780  -1.13612
  Beta  occ. eigenvalues --   -1.13602  -1.13526  -1.13452  -1.13386  -1.13365
  Beta  occ. eigenvalues --   -1.13312  -1.13262  -1.12952  -1.12897  -1.12866
  Beta  occ. eigenvalues --   -0.19027  -0.14508  -0.11291
  Beta virt. eigenvalues --   -0.07364  -0.06738  -0.05422  -0.03320  -0.03191
  Beta virt. eigenvalues --   -0.02617  -0.01866  -0.01197  -0.01115  -0.00095
  Beta virt. eigenvalues --   -0.00073   0.00190   0.00338   0.00704   0.00742

 Mulliken charges and spin densities:
               1          2
     1  Na  -0.918334   0.192241
     2  Na   0.047846   0.081596
     3  Na   1.305154   0.384236
     4  Na   0.934356   0.212686
     5  Na  -1.418787   0.131441
     6  Na  -0.017998  -0.088515
     7  Na   0.067764   0.086314
 Sum of Mulliken charges =  -0.00000   1.00000

 Dipole moment (field-independent basis, Debye):
    X=              0.4424    Y=             -0.3501    Z=              0.6319  Tot=              0.8471
 Quadrupole moment (field-independent basis, Debye-Ang):
   XX=            -49.6167   YY=            -75.5369   ZZ=            -70.6356
   XY=              2.8391   XZ=              0.3376   YZ=              0.1880

 Normal termination of Gaussian 16 at Mon Nov 13 15:54:13 2023.
