 Gaussian 16, Revision B.01,
 Gaussian 16:  ES64L-G16RevB.01 20-Dec-2017

 -------------------------
 #P B3LYP/6-311+g(d) force
 -------------------------

 ------------------------------
 Gaussian input prepared by ASE
 ------------------------------
 Symbolic Z-matrix:
 Charge =  0 Multiplicity = 2

                         Standard orientation:
 ---------------------------------------------------------------------
 Center     Atomic      Atomic             Coordinates (Angstroms)
 Number     Number       Type             X           Y           Z
 ---------------------------------------------------------------------
      1         11           0       -0.424572   -0.859807   -0.940163
      2         11           0        0.228155   -0.022791    1.760134
      3         11           0        1.661532   -2.227171    0.460841
      4         11           0        2.076988    0.157772   -1.206901
      5         11           0        1.125181    2.270367    0.204159
      6         11           0       -1.444087    1.492561   -0.104393
      7         11           0       -3.223198   -0.810931   -0.173677
 ---------------------------------------------------------------------

 SCF Done:  E(UB3LYP) =  -1136.07666608     A.U. after   19 cycles

 The electronic state is 2-A.
 Alpha  occ. eigenvalues --  -38.44399 -38.44319 -38.43960 -38.43837 -38.43732
 Alpha  occ. eigenvalues --  -38.43578 -38.43568  -2.20546  -2.20248  -2.20161
 Alpha  occ. eigenvalues --   -2.20098  -2.20026  -2.19679  -2.19604  -1.14469
 Alpha  occ. eigenvalues --   -1.14335  -1.14225  -1.14148  -1.14101  -1.13964
 Alpha  occ. eigenvalues --   -1.13930  -1.13896  -1.13848  -1.13772  -1.13742
 Alpha  occ. eigenvalues --   -1.13635  -1.13585  -1.13574  -1.13490  -1.13273
 Alpha  occ. eigenvalues --   -1.13256  -1.13242  -1.13216  -1.13188  -1.13186
 Alpha  occ. eigenvalues --   -0.21076  -0.13994  -0.12819  -0.11709
 Alpha virt. eigenvalues --   -0.05723  -0.04524  -0.03858  -0.03503  -0.02969
 Alpha virt. eigenvalues --   -0.02498  -0.01513  -0.00793  -0.00107   0.00301
 Alpha virt. eigenvalues --    0.00547   0.00700   0.00984   0.01029   0.01115

  Beta  occ. eigenvalues --  -38.44345 -38.44318 -38.43862 -38.43820 -38.43688
  Beta  occ. eigenvalues --  -38.43563 -38.43554  -2.20452  -2.20247  -2.20062
  Beta  occ. eigenvalues --   -2.19984  -2.19967  -2.19662  -2.19582  -1.14406
  Beta  occ. eigenvalues --   -1.14281  -1.14185  -1.14076  -1.14060  -1.13939
  Beta  occ. eigenvalues --   -1.13866  -1.13831  -1.13826  -1.13715  -1.13645
  Beta  occ. eigenvalues --   -1.13556  -1.13520  -1.13493  -1.13450  -1.13255
  Beta  occ. eigenvalues --   -1.13222  -1.13201  -1.13179  -1.13166  -1.13151
  Beta  occ. eigenvalues --   -0.20267  -0.13734  -0.12474
  Beta virt. eigenvalues --   -0.07519  -0.05579  -0.04525  -0.03834  -0.02737
  Beta virt. eigenvalues --   -0.02150  -0.01586  -0.01230  -0.00722   0.00091
  Beta virt. eigenvalues --    0.00351   0.00524   0.00738   0.00991   0.01057

 Mulliken charges and spin densities:
               1          2
     1  Na   0.057717   0.289899
     2  Na   0.023724   0.354614
     3  Na  -0.565149  -0.001946
     4  Na  -0.045927   0.195969
     5  Na   0.333108   0.023789
     6  Na  -0.134538   0.173476
     7  Na   0.331065  -0.035801
 Sum of Mulliken charges =  -0.00000   1.00000

 Dipole moment (field-independent basis, Debye):
    X=             -0.2561    Y=             -0.3197    Z=              0.3355  Tot=              0.5295
 Quadrupole moment (field-independent basis, Debye-Ang):
   XX=            -56.3261   YY=            -67.4144   ZZ=            -71.1009
   XY=              1.1058   XZ=             -0.8344   YZ=             -1.1437

 Normal termination of Gaussian 16 at Mon Nov 13 19:34:10 2023.
