 Gaussian 16, Revision B.01,
 Gaussian 16:  ES64L-G16RevB.01 20-Dec-2017

 -------------------------
 #P B3LYP/6-311+g(d) force
 -------------------------

 ------------------------------
 Gaussian input prepared by ASE
 ------------------------------
 Symbolic Z-matrix:
 Charge =  0 Multiplicity = 2

                         Standard orientation:
 ---------------------------------------------------------------------
 Center     Atomic      Atomic             Coordinates (Angstroms)
 Number     Number       Type             X           Y           Z
 ---------------------------------------------------------------------
      1         11           0       -0.965245   -1.029439    1.421554
      2         11           0        0.276348   -1.891101   -1.162720
      3         11           0        2.016668   -1.112565    1.121469
      4         11           0        2.614121    1.156943   -0.745606
      5         11           0       -2.964740   -0.127412   -0.637893
      6         11           0       -0.309753    1.048708   -1.420717
      7         11           0       -0.667400    1.954865    1.423912
 ---------------------------------------------------------------------

 SCF Done:  E(UB3LYP) =  -1136.11293392     A.U. after   21 cycles

 The electronic state is 2-A.
 Alpha  occ. eigenvalues --  -38.44321 -38.43851 -38.43713 -38.43616 -38.43384
 Alpha  occ. eigenvalues --  -38.43289 -38.43224  -2.20249  -2.19788  -2.19630
 Alpha  occ. eigenvalues --   -2.19614  -2.19418  -2.19401  -2.19344  -1.13970
 Alpha  occ. eigenvalues --   -1.13951  -1.13837  -1.13555  -1.13473  -1.13437
 Alpha  occ. eigenvalues --   -1.13426  -1.13367  -1.13356  -1.13294  -1.13223
 Alpha  occ. eigenvalues --   -1.13216  -1.13152  -1.13132  -1.13043  -1.12998
 Alpha  occ. eigenvalues --   -1.12982  -1.12971  -1.12941  -1.12922  -1.12919
 Alpha  occ. eigenvalues --   -0.20228  -0.13599  -0.12451  -0.11783
 Alpha virt. eigenvalues --   -0.05621  -0.04339  -0.03980  -0.03550  -0.03226
 Alpha virt. eigenvalues --   -0.02949  -0.01527  -0.00442  -0.00357   0.00345
 Alpha virt. eigenvalues --    0.00528   0.00602   0.00818   0.00961   0.01042

  Beta  occ. eigenvalues --  -38.44307 -38.43798 -38.43706 -38.43594 -38.43347
  Beta  occ. eigenvalues --  -38.43237 -38.43172  -2.20228  -2.19694  -2.19615
  Beta  occ. eigenvalues --   -2.19579  -2.19350  -2.19317  -2.19255  -1.13953
  Beta  occ. eigenvalues --   -1.13926  -1.13814  -1.13488  -1.13414  -1.13402
  Beta  occ. eigenvalues --   -1.13390  -1.13340  -1.13296  -1.13248  -1.13202
  Beta  occ. eigenvalues --   -1.13166  -1.13134  -1.13065  -1.12973  -1.12941
  Beta  occ. eigenvalues --   -1.12929  -1.12909  -1.12881  -1.12859  -1.12839
  Beta  occ. eigenvalues --   -0.19370  -0.13373  -0.11620
  Beta virt. eigenvalues --   -0.08125  -0.05535  -0.04121  -0.03572  -0.03120
  Beta virt. eigenvalues --   -0.02616  -0.01904  -0.01439  -0.00353  -0.00149
  Beta virt. eigenvalues --    0.00372   0.00570   0.00652   0.00898   0.01001

 Mulliken charges and spin densities:
               1          2
     1  Na   0.351014   0.308141
     2  Na  -0.538837   0.342052
     3  Na   0.369360   0.011829
     4  Na  -0.053360  -0.012650
     5  Na   0.446960  -0.038496
     6  Na   0.069609   0.166171
     7  Na  -0.644746   0.222955
 Sum of Mulliken charges =  -0.00000   1.00000

 Dipole moment (field-independent basis, Debye):
    X=             -0.2843    Y=              0.1616    Z=              0.0105  Tot=              0.3272
 Quadrupole moment (field-independent basis, Debye-Ang):
   XX=            -56.4231   YY=            -74.2433   ZZ=            -64.8503
   XY=              0.4436   XZ=              1.3383   YZ=              2.6495

 Normal termination of Gaussian 16 at Mon Nov 13 18:40:10 2023.
