 Gaussian 16, Revision B.01,
 Gaussian 16:  ES64L-G16RevB.01 20-Dec-2017

 -------------------------
 #P B3LYP/6-311+g(d) force
 -------------------------

 ------------------------------
 Gaussian input prepared by ASE
 ------------------------------
 Symbolic Z-matrix:
 Charge =  0 Multiplicity = 2

                         Standard orientation:
 ---------------------------------------------------------------------
 Center     Atomic      Atomic             Coordinates (Angstroms)
 Number     Number       Type             X           Y           Z
 ---------------------------------------------------------------------
      1         11           0        0.801629    1.591399    0.621502
      2         11           0       -1.056067    0.000266    1.867102
      3         11           0       -2.025223    1.525941   -0.625777
      4         11           0       -2.030638   -1.523128   -0.625655
      5         11           0        0.800580   -1.593153    0.620611
      6         11           0        0.471390   -0.000581   -1.590789
      7         11           0        3.038330   -0.000744   -0.266993
 ---------------------------------------------------------------------

 SCF Done:  E(UB3LYP) =  -1136.08275831     A.U. after   24 cycles

 The electronic state is 2-A.
 Alpha  occ. eigenvalues --  -38.44616 -38.44517 -38.44260 -38.43342 -38.43338
 Alpha  occ. eigenvalues --  -38.43134 -38.43133  -2.20792  -2.20565  -2.20529
 Alpha  occ. eigenvalues --   -2.19388  -2.19375  -2.19361  -2.19352  -1.14633
 Alpha  occ. eigenvalues --   -1.14521  -1.14435  -1.14389  -1.14295  -1.14223
 Alpha  occ. eigenvalues --   -1.14214  -1.14154  -1.14044  -1.13165  -1.13108
 Alpha  occ. eigenvalues --   -1.13099  -1.13063  -1.13043  -1.13020  -1.13005
 Alpha  occ. eigenvalues --   -1.13003  -1.12984  -1.12921  -1.12875  -1.12835
 Alpha  occ. eigenvalues --   -0.21432  -0.14351  -0.12603  -0.11882
 Alpha virt. eigenvalues --   -0.05746  -0.04138  -0.04066  -0.03585  -0.02838
 Alpha virt. eigenvalues --   -0.02701  -0.01543  -0.00369  -0.00287   0.00283
 Alpha virt. eigenvalues --    0.00666   0.00844   0.00938   0.01030   0.01079

  Beta  occ. eigenvalues --  -38.44523 -38.44513 -38.44187 -38.43323 -38.43320
  Beta  occ. eigenvalues --  -38.43104 -38.43103  -2.20625  -2.20545  -2.20414
  Beta  occ. eigenvalues --   -2.19358  -2.19344  -2.19314  -2.19307  -1.14517
  Beta  occ. eigenvalues --   -1.14469  -1.14314  -1.14275  -1.14223  -1.14193
  Beta  occ. eigenvalues --   -1.14190  -1.14091  -1.13971  -1.13145  -1.13086
  Beta  occ. eigenvalues --   -1.13082  -1.13031  -1.12990  -1.12972  -1.12960
  Beta  occ. eigenvalues --   -1.12919  -1.12916  -1.12895  -1.12847  -1.12802
  Beta  occ. eigenvalues --   -0.20584  -0.14072  -0.11603
  Beta virt. eigenvalues --   -0.08239  -0.05661  -0.04074  -0.03340  -0.03194
  Beta virt. eigenvalues --   -0.02035  -0.01854  -0.01443  -0.00349  -0.00052
  Beta virt. eigenvalues --    0.00322   0.00711   0.00829   0.01060   0.01086

 Mulliken charges and spin densities:
               1          2
     1  Na  -0.440775   0.312810
     2  Na   0.641855   0.094153
     3  Na  -0.236254   0.002620
     4  Na  -0.239265   0.001643
     5  Na  -0.443048   0.312097
     6  Na  -0.193856   0.349370
     7  Na   0.911344  -0.072692
 Sum of Mulliken charges =  -0.00000   1.00000

 Dipole moment (field-independent basis, Debye):
    X=              0.0106    Y=             -0.0018    Z=             -0.1366  Tot=              0.1370
 Quadrupole moment (field-independent basis, Debye-Ang):
   XX=            -53.9668   YY=            -75.6567   ZZ=            -66.1031
   XY=              0.0020   XZ=              0.8794   YZ=             -0.0002

 Normal termination of Gaussian 16 at Mon Nov 13 17:58:29 2023.
