 Gaussian 16, Revision B.01,
 Gaussian 16:  ES64L-G16RevB.01 20-Dec-2017

 -------------------------
 #P B3LYP/6-311+g(d) force
 -------------------------

 ------------------------------
 Gaussian input prepared by ASE
 ------------------------------
 Symbolic Z-matrix:
 Charge =  0 Multiplicity = 2

                         Standard orientation:
 ---------------------------------------------------------------------
 Center     Atomic      Atomic             Coordinates (Angstroms)
 Number     Number       Type             X           Y           Z
 ---------------------------------------------------------------------
      1         11           0        0.788816    1.009733   -0.734982
      2         11           0       -0.738480   -0.255216    1.510293
      3         11           0       -1.885087    2.115009    0.070490
      4         11           0       -3.196256   -0.573796   -0.180183
      5         11           0       -0.556364   -1.645268   -1.138709
      6         11           0        1.865420   -1.440122    0.615285
      7         11           0        3.721951    0.789660   -0.142195
 ---------------------------------------------------------------------

 SCF Done:  E(UB3LYP) =  -1136.08981956     A.U. after   28 cycles

 The electronic state is 2-A.
 Alpha  occ. eigenvalues --  -38.45720 -38.45456 -38.43818 -38.43574 -38.43280
 Alpha  occ. eigenvalues --  -38.43273 -38.42833  -2.21688  -2.21321  -2.19961
 Alpha  occ. eigenvalues --   -2.19654  -2.19472  -2.19261  -2.18913  -1.15396
 Alpha  occ. eigenvalues --   -1.15345  -1.15322  -1.15030  -1.14998  -1.14942
 Alpha  occ. eigenvalues --   -1.13772  -1.13665  -1.13605  -1.13410  -1.13304
 Alpha  occ. eigenvalues --   -1.13259  -1.13185  -1.13112  -1.13080  -1.12922
 Alpha  occ. eigenvalues --   -1.12889  -1.12853  -1.12604  -1.12555  -1.12491
 Alpha  occ. eigenvalues --   -0.20372  -0.14937  -0.11697  -0.10767
 Alpha virt. eigenvalues --   -0.07581  -0.04925  -0.03857  -0.03263  -0.03031
 Alpha virt. eigenvalues --   -0.02056  -0.01618  -0.00992  -0.00273  -0.00088
 Alpha virt. eigenvalues --    0.00029   0.00349   0.00588   0.00754   0.00859

  Beta  occ. eigenvalues --  -38.45701 -38.45463 -38.43783 -38.43550 -38.43268
  Beta  occ. eigenvalues --  -38.43191 -38.42798  -2.21657  -2.21336  -2.19902
  Beta  occ. eigenvalues --   -2.19615  -2.19326  -2.19244  -2.18850  -1.15379
  Beta  occ. eigenvalues --   -1.15311  -1.15282  -1.15041  -1.15003  -1.14945
  Beta  occ. eigenvalues --   -1.13731  -1.13626  -1.13525  -1.13372  -1.13252
  Beta  occ. eigenvalues --   -1.13228  -1.13100  -1.13021  -1.12988  -1.12909
  Beta  occ. eigenvalues --   -1.12863  -1.12793  -1.12565  -1.12510  -1.12415
  Beta  occ. eigenvalues --   -0.19621  -0.14718  -0.11407
  Beta virt. eigenvalues --   -0.07431  -0.06710  -0.04896  -0.03150  -0.03074
  Beta virt. eigenvalues --   -0.02952  -0.01394  -0.01010  -0.00667  -0.00043
  Beta virt. eigenvalues --    0.00003   0.00052   0.00366   0.00762   0.00784

 Mulliken charges and spin densities:
               1          2
     1  Na  -1.153318   0.402296
     2  Na  -0.835642   0.147296
     3  Na   0.972014   0.045076
     4  Na   0.211314   0.156581
     5  Na   0.048824   0.177137
     6  Na   0.934582   0.259729
     7  Na  -0.177774  -0.188115
 Sum of Mulliken charges =  -0.00000   1.00000

 Dipole moment (field-independent basis, Debye):
    X=              0.2441    Y=             -0.2449    Z=              0.1400  Tot=              0.3730
 Quadrupole moment (field-independent basis, Debye-Ang):
   XX=            -42.5995   YY=            -74.1733   ZZ=            -74.7489
   XY=              0.7960   XZ=              0.9523   YZ=             -0.4408

 Normal termination of Gaussian 16 at Mon Nov 13 17:03:44 2023.
