 Gaussian 16, Revision B.01,
 Gaussian 16:  ES64L-G16RevB.01 20-Dec-2017

 -------------------------
 #P B3LYP/6-311+g(d) force
 -------------------------

 ------------------------------
 Gaussian input prepared by ASE
 ------------------------------
 Symbolic Z-matrix:
 Charge =  0 Multiplicity = 2

                         Standard orientation:
 ---------------------------------------------------------------------
 Center     Atomic      Atomic             Coordinates (Angstroms)
 Number     Number       Type             X           Y           Z
 ---------------------------------------------------------------------
      1         11           0        0.664464   -1.032207    1.508341
      2         11           0       -2.192071    1.350751   -0.655281
      3         11           0       -2.196858   -1.347371    0.655807
      4         11           0       -0.000912   -1.893507   -1.287930
      5         11           0        0.005824    1.895636    1.287797
      6         11           0        0.665895    1.030725   -1.507913
      7         11           0        3.053657   -0.004027   -0.000821
 ---------------------------------------------------------------------

 SCF Done:  E(UB3LYP) =  -1136.11283923     A.U. after   20 cycles

 The electronic state is 2-A.
 Alpha  occ. eigenvalues --  -38.44099 -38.43542 -38.43541 -38.43517 -38.43516
 Alpha  occ. eigenvalues --  -38.43460 -38.43457  -2.20017  -2.19661  -2.19658
 Alpha  occ. eigenvalues --   -2.19536  -2.19532  -2.19462  -2.19447  -1.13757
 Alpha  occ. eigenvalues --   -1.13743  -1.13617  -1.13501  -1.13444  -1.13409
 Alpha  occ. eigenvalues --   -1.13407  -1.13317  -1.13290  -1.13259  -1.13247
 Alpha  occ. eigenvalues --   -1.13196  -1.13150  -1.13130  -1.13107  -1.13095
 Alpha  occ. eigenvalues --   -1.13076  -1.13073  -1.13002  -1.12997  -1.12967
 Alpha  occ. eigenvalues --   -0.20451  -0.13493  -0.12354  -0.12235
 Alpha virt. eigenvalues --   -0.05461  -0.04176  -0.03866  -0.03683  -0.03385
 Alpha virt. eigenvalues --   -0.03121  -0.01394  -0.00361  -0.00320   0.00356
 Alpha virt. eigenvalues --    0.00597   0.00656   0.00979   0.00988   0.01039

  Beta  occ. eigenvalues --  -38.44096 -38.43480 -38.43479 -38.43475 -38.43474
  Beta  occ. eigenvalues --  -38.43449 -38.43446  -2.20014  -2.19551  -2.19549
  Beta  occ. eigenvalues --   -2.19464  -2.19459  -2.19444  -2.19427  -1.13751
  Beta  occ. eigenvalues --   -1.13720  -1.13607  -1.13450  -1.13388  -1.13325
  Beta  occ. eigenvalues --   -1.13318  -1.13251  -1.13238  -1.13219  -1.13201
  Beta  occ. eigenvalues --   -1.13161  -1.13077  -1.13074  -1.13047  -1.13036
  Beta  occ. eigenvalues --   -1.13026  -1.13015  -1.12972  -1.12961  -1.12956
  Beta  occ. eigenvalues --   -0.19601  -0.13237  -0.12100
  Beta virt. eigenvalues --   -0.08022  -0.05403  -0.04081  -0.03739  -0.02947
  Beta virt. eigenvalues --   -0.02731  -0.01924  -0.01333  -0.00371  -0.00064
  Beta virt. eigenvalues --    0.00388   0.00635   0.00679   0.01016   0.01038

 Mulliken charges and spin densities:
               1          2
     1  Na   0.424402   0.257935
     2  Na   0.337096   0.016895
     3  Na   0.337918   0.016519
     4  Na  -0.737646   0.283692
     5  Na  -0.737325   0.284051
     6  Na   0.425608   0.256035
     7  Na  -0.050053  -0.115126
 Sum of Mulliken charges =  -0.00000   1.00000

 Dipole moment (field-independent basis, Debye):
    X=              0.3589    Y=             -0.0011    Z=              0.0022  Tot=              0.3589
 Quadrupole moment (field-independent basis, Debye-Ang):
   XX=            -57.7090   YY=            -72.7856   ZZ=            -65.8572
   XY=             -0.0031   XZ=             -0.0055   YZ=              1.2338

 Normal termination of Gaussian 16 at Mon Nov 13 19:01:54 2023.
