 Gaussian 16, Revision B.01,
 Gaussian 16:  ES64L-G16RevB.01 20-Dec-2017

 -------------------------
 #P B3LYP/6-311+g(d) force
 -------------------------

 ------------------------------
 Gaussian input prepared by ASE
 ------------------------------
 Symbolic Z-matrix:
 Charge =  0 Multiplicity = 2

                         Standard orientation:
 ---------------------------------------------------------------------
 Center     Atomic      Atomic             Coordinates (Angstroms)
 Number     Number       Type             X           Y           Z
 ---------------------------------------------------------------------
      1         11           0        0.009901    0.426292   -0.892412
      2         11           0       -1.985188    2.413586    0.152724
      3         11           0       -4.051082    0.238478    0.290216
      4         11           0       -1.948711   -1.792533   -0.391571
      5         11           0        0.619384   -1.676002    1.152258
      6         11           0        2.743294   -0.801766   -0.773854
      7         11           0        4.612402    1.191946    0.462638
 ---------------------------------------------------------------------

 SCF Done:  E(UB3LYP) =  -1136.09813701     A.U. after   23 cycles

 The electronic state is 2-A.
 Alpha  occ. eigenvalues --  -38.44642 -38.44300 -38.44159 -38.44151 -38.43870
 Alpha  occ. eigenvalues --  -38.43870 -38.43647  -2.20620  -2.20398  -2.20132
 Alpha  occ. eigenvalues --   -2.20076  -2.19865  -2.19699  -2.19555  -1.14393
 Alpha  occ. eigenvalues --   -1.14333  -1.14237  -1.14137  -1.14058  -1.14000
 Alpha  occ. eigenvalues --   -1.13815  -1.13807  -1.13778  -1.13772  -1.13748
 Alpha  occ. eigenvalues --   -1.13703  -1.13526  -1.13511  -1.13440  -1.13337
 Alpha  occ. eigenvalues --   -1.13331  -1.13316  -1.13227  -1.13184  -1.13171
 Alpha  occ. eigenvalues --   -0.18901  -0.14898  -0.11910  -0.10836
 Alpha virt. eigenvalues --   -0.06644  -0.05725  -0.04227  -0.03323  -0.03125
 Alpha virt. eigenvalues --   -0.02507  -0.01744  -0.01034  -0.00448  -0.00278
 Alpha virt. eigenvalues --   -0.00227  -0.00068   0.00535   0.00592   0.00743

  Beta  occ. eigenvalues --  -38.44642 -38.44235 -38.44148 -38.44107 -38.43841
  Beta  occ. eigenvalues --  -38.43817 -38.43617  -2.20621  -2.20281  -2.20132
  Beta  occ. eigenvalues --   -2.19981  -2.19816  -2.19600  -2.19502  -1.14368
  Beta  occ. eigenvalues --   -1.14343  -1.14238  -1.14075  -1.13976  -1.13926
  Beta  occ. eigenvalues --   -1.13801  -1.13780  -1.13743  -1.13729  -1.13683
  Beta  occ. eigenvalues --   -1.13639  -1.13490  -1.13474  -1.13382  -1.13272
  Beta  occ. eigenvalues --   -1.13264  -1.13254  -1.13172  -1.13149  -1.13133
  Beta  occ. eigenvalues --   -0.18409  -0.14400  -0.11475
  Beta virt. eigenvalues --   -0.07242  -0.06467  -0.05430  -0.03781  -0.03151
  Beta virt. eigenvalues --   -0.02711  -0.02038  -0.01479  -0.00853  -0.00176
  Beta virt. eigenvalues --   -0.00126  -0.00024   0.00184   0.00634   0.00679

 Mulliken charges and spin densities:
               1          2
     1  Na  -1.916773  -0.157913
     2  Na   1.090588   0.094422
     3  Na  -0.604652  -0.000364
     4  Na   1.124807   0.677691
     5  Na  -0.218053  -0.116825
     6  Na   0.662324   0.309502
     7  Na  -0.138239   0.193487
 Sum of Mulliken charges =  -0.00000   1.00000

 Dipole moment (field-independent basis, Debye):
    X=             -0.1593    Y=             -0.2209    Z=              0.6379  Tot=              0.6936
 Quadrupole moment (field-independent basis, Debye-Ang):
   XX=            -70.9377   YY=            -70.7535   ZZ=            -64.4232
   XY=             -1.3016   XZ=              1.3852   YZ=              2.7782

 Normal termination of Gaussian 16 at Mon Nov 13 14:57:33 2023.
