 Gaussian 16, Revision B.01,
 Gaussian 16:  ES64L-G16RevB.01 20-Dec-2017

 -------------------------
 #P B3LYP/6-311+g(d) force
 -------------------------

 ------------------------------
 Gaussian input prepared by ASE
 ------------------------------
 Symbolic Z-matrix:
 Charge =  0 Multiplicity = 2

                         Standard orientation:
 ---------------------------------------------------------------------
 Center     Atomic      Atomic             Coordinates (Angstroms)
 Number     Number       Type             X           Y           Z
 ---------------------------------------------------------------------
      1         11           0       -0.011139   -0.930804    2.159850
      2         11           0       -0.134318   -1.963521   -1.744821
      3         11           0        2.141099   -1.602497    0.179302
      4         11           0        3.174955    1.198712   -0.090976
      5         11           0        0.546134    2.610940   -0.378263
      6         11           0       -1.369994    0.306430   -0.215848
      7         11           0       -4.346737    0.380739    0.090756
 ---------------------------------------------------------------------

 SCF Done:  E(UB3LYP) =  -1136.09912908     A.U. after   26 cycles

 The electronic state is 2-A.
 Alpha  occ. eigenvalues --  -38.46037 -38.44416 -38.44388 -38.43874 -38.43829
 Alpha  occ. eigenvalues --  -38.43748 -38.43405  -2.21803  -2.20308  -2.20293
 Alpha  occ. eigenvalues --   -2.19819  -2.19789  -2.19622  -2.19471  -1.15497
 Alpha  occ. eigenvalues --   -1.15449  -1.15446  -1.14028  -1.14021  -1.13981
 Alpha  occ. eigenvalues --   -1.13971  -1.13917  -1.13887  -1.13591  -1.13526
 Alpha  occ. eigenvalues --   -1.13465  -1.13442  -1.13401  -1.13377  -1.13323
 Alpha  occ. eigenvalues --   -1.13249  -1.13246  -1.13146  -1.13092  -1.13061
 Alpha  occ. eigenvalues --   -0.18876  -0.13502  -0.12105  -0.11133
 Alpha virt. eigenvalues --   -0.07612  -0.04432  -0.04053  -0.03445  -0.03019
 Alpha virt. eigenvalues --   -0.02684  -0.02439  -0.00890  -0.00369  -0.00113
 Alpha virt. eigenvalues --    0.00012   0.00121   0.00289   0.00751   0.00873

  Beta  occ. eigenvalues --  -38.46052 -38.44413 -38.44290 -38.43813 -38.43798
  Beta  occ. eigenvalues --  -38.43742 -38.43380  -2.21831  -2.20289  -2.20128
  Beta  occ. eigenvalues --   -2.19796  -2.19651  -2.19613  -2.19433  -1.15516
  Beta  occ. eigenvalues --   -1.15466  -1.15464  -1.14027  -1.13970  -1.13906
  Beta  occ. eigenvalues --   -1.13901  -1.13854  -1.13763  -1.13538  -1.13446
  Beta  occ. eigenvalues --   -1.13425  -1.13409  -1.13386  -1.13280  -1.13253
  Beta  occ. eigenvalues --   -1.13242  -1.13230  -1.13093  -1.13052  -1.13029
  Beta  occ. eigenvalues --   -0.18111  -0.13408  -0.11852
  Beta virt. eigenvalues --   -0.07534  -0.07069  -0.04272  -0.03825  -0.02981
  Beta virt. eigenvalues --   -0.02725  -0.02054  -0.01579  -0.00950  -0.00144
  Beta virt. eigenvalues --   -0.00049   0.00061   0.00208   0.00518   0.00806

 Mulliken charges and spin densities:
               1          2
     1  Na  -0.226067   0.314551
     2  Na   0.654427   0.228589
     3  Na   1.633083   0.364919
     4  Na  -0.752160  -0.014351
     5  Na   2.358023  -0.059213
     6  Na  -2.629634   0.353271
     7  Na  -1.037673  -0.187766
 Sum of Mulliken charges =  -0.00000   1.00000

 Dipole moment (field-independent basis, Debye):
    X=             -1.1921    Y=             -0.2359    Z=              0.1718  Tot=              1.2272
 Quadrupole moment (field-independent basis, Debye-Ang):
   XX=            -46.0794   YY=            -73.8750   ZZ=            -72.0269
   XY=             -1.8788   XZ=             -0.2908   YZ=              0.8351

 Normal termination of Gaussian 16 at Mon Nov 13 15:59:14 2023.
