 Gaussian 16, Revision B.01,
 Gaussian 16:  ES64L-G16RevB.01 20-Dec-2017

 -------------------------
 #P B3LYP/6-311+g(d) force
 -------------------------

 ------------------------------
 Gaussian input prepared by ASE
 ------------------------------
 Symbolic Z-matrix:
 Charge =  0 Multiplicity = 2

                         Standard orientation:
 ---------------------------------------------------------------------
 Center     Atomic      Atomic             Coordinates (Angstroms)
 Number     Number       Type             X           Y           Z
 ---------------------------------------------------------------------
      1         11           0       -1.018953    1.503111    0.285204
      2         11           0       -0.527900   -0.206660    2.700920
      3         11           0       -3.158038    0.377441   -1.485106
      4         11           0       -1.432047   -1.464126    0.133267
      5         11           0        1.239940   -2.420803   -0.857062
      6         11           0        3.172752   -0.202239   -0.262287
      7         11           0        1.724246    2.413277   -0.514936
 ---------------------------------------------------------------------

 SCF Done:  E(UB3LYP) =  -1136.10400974     A.U. after   21 cycles

 The electronic state is 2-A.
 Alpha  occ. eigenvalues --  -38.45649 -38.45105 -38.44225 -38.43447 -38.43358
 Alpha  occ. eigenvalues --  -38.43350 -38.43299  -2.21564  -2.21008  -2.20102
 Alpha  occ. eigenvalues --   -2.19511  -2.19411  -2.19235  -2.19179  -1.15269
 Alpha  occ. eigenvalues --   -1.15179  -1.15138  -1.14705  -1.14650  -1.14610
 Alpha  occ. eigenvalues --   -1.13806  -1.13785  -1.13740  -1.13289  -1.13207
 Alpha  occ. eigenvalues --   -1.13195  -1.13121  -1.13116  -1.13009  -1.12889
 Alpha  occ. eigenvalues --   -1.12861  -1.12841  -1.12833  -1.12820  -1.12793
 Alpha  occ. eigenvalues --   -0.18993  -0.13810  -0.12266  -0.11997
 Alpha virt. eigenvalues --   -0.05916  -0.05103  -0.04119  -0.03846  -0.03066
 Alpha virt. eigenvalues --   -0.02944  -0.01507  -0.00637  -0.00457  -0.00092
 Alpha virt. eigenvalues --    0.00049   0.00358   0.00778   0.00847   0.00897

  Beta  occ. eigenvalues --  -38.45518 -38.45037 -38.44222 -38.43429 -38.43361
  Beta  occ. eigenvalues --  -38.43332 -38.43295  -2.21326  -2.20882  -2.20097
  Beta  occ. eigenvalues --   -2.19488  -2.19387  -2.19240  -2.19171  -1.15106
  Beta  occ. eigenvalues --   -1.15008  -1.14977  -1.14624  -1.14560  -1.14522
  Beta  occ. eigenvalues --   -1.13806  -1.13780  -1.13734  -1.13282  -1.13195
  Beta  occ. eigenvalues --   -1.13119  -1.13111  -1.13026  -1.13000  -1.12893
  Beta  occ. eigenvalues --   -1.12860  -1.12840  -1.12829  -1.12816  -1.12784
  Beta  occ. eigenvalues --   -0.18190  -0.13459  -0.11855
  Beta virt. eigenvalues --   -0.08241  -0.05605  -0.04897  -0.03873  -0.03305
  Beta virt. eigenvalues --   -0.02460  -0.02194  -0.01226  -0.00469  -0.00243
  Beta virt. eigenvalues --   -0.00031   0.00126   0.00440   0.00844   0.00911

 Mulliken charges and spin densities:
               1          2
     1  Na  -0.507552   0.315025
     2  Na   0.325266   0.330198
     3  Na   0.238074   0.022108
     4  Na   0.145527   0.359432
     5  Na  -0.002355   0.015427
     6  Na  -0.470652  -0.030279
     7  Na   0.271693  -0.011911
 Sum of Mulliken charges =  -0.00000   1.00000

 Dipole moment (field-independent basis, Debye):
    X=             -0.5348    Y=             -0.0016    Z=              0.2966  Tot=              0.6116
 Quadrupole moment (field-independent basis, Debye-Ang):
   XX=            -59.4286   YY=            -74.4657   ZZ=            -63.4180
   XY=             -0.3201   XZ=              3.6515   YZ=             -1.0198

 Normal termination of Gaussian 16 at Mon Nov 13 15:11:23 2023.
