 Gaussian 16, Revision B.01,
 Gaussian 16:  ES64L-G16RevB.01 20-Dec-2017

 -------------------------
 #P B3LYP/6-311+g(d) force
 -------------------------

 ------------------------------
 Gaussian input prepared by ASE
 ------------------------------
 Symbolic Z-matrix:
 Charge =  0 Multiplicity = 2

                         Standard orientation:
 ---------------------------------------------------------------------
 Center     Atomic      Atomic             Coordinates (Angstroms)
 Number     Number       Type             X           Y           Z
 ---------------------------------------------------------------------
      1         11           0        0.536674   -0.165089    1.510122
      2         11           0        2.322543   -2.009911   -0.050069
      3         11           0       -4.531446    0.178827   -0.057523
      4         11           0       -1.888419   -1.227545    0.086590
      5         11           0        0.443126   -0.151281   -1.474466
      6         11           0        2.851925    0.935525   -0.051824
      7         11           0        0.265597    2.439473    0.037170
 ---------------------------------------------------------------------

 SCF Done:  E(UB3LYP) =  -1136.08860930     A.U. after   35 cycles

 The electronic state is 2-A.
 Alpha  occ. eigenvalues --  -38.45686 -38.45018 -38.44347 -38.43647 -38.43349
 Alpha  occ. eigenvalues --  -38.43098 -38.42540  -2.21483  -2.21174  -2.20433
 Alpha  occ. eigenvalues --   -2.19612  -2.19561  -2.19095  -2.18540  -1.15169
 Alpha  occ. eigenvalues --   -1.15119  -1.15106  -1.14925  -1.14878  -1.14791
 Alpha  occ. eigenvalues --   -1.14165  -1.14083  -1.14058  -1.13421  -1.13312
 Alpha  occ. eigenvalues --   -1.13245  -1.13207  -1.13176  -1.13124  -1.12787
 Alpha  occ. eigenvalues --   -1.12742  -1.12693  -1.12254  -1.12184  -1.12145
 Alpha  occ. eigenvalues --   -0.20165  -0.14209  -0.11946  -0.10697
 Alpha virt. eigenvalues --   -0.08033  -0.04220  -0.03679  -0.03319  -0.03043
 Alpha virt. eigenvalues --   -0.02088  -0.01883  -0.01304  -0.00443  -0.00344
 Alpha virt. eigenvalues --   -0.00076   0.00266   0.00402   0.00726   0.00899

  Beta  occ. eigenvalues --  -38.45649 -38.44984 -38.44322 -38.43632 -38.43258
  Beta  occ. eigenvalues --  -38.43088 -38.42532  -2.21413  -2.21117  -2.20393
  Beta  occ. eigenvalues --   -2.19593  -2.19398  -2.19082  -2.18531  -1.15125
  Beta  occ. eigenvalues --   -1.15069  -1.15059  -1.14882  -1.14803  -1.14755
  Beta  occ. eigenvalues --   -1.14143  -1.14049  -1.14000  -1.13362  -1.13281
  Beta  occ. eigenvalues --   -1.13188  -1.13146  -1.13082  -1.13013  -1.12776
  Beta  occ. eigenvalues --   -1.12734  -1.12643  -1.12252  -1.12165  -1.12121
  Beta  occ. eigenvalues --   -0.19494  -0.13756  -0.11677
  Beta virt. eigenvalues --   -0.07746  -0.06845  -0.04109  -0.03649  -0.02917
  Beta virt. eigenvalues --   -0.02720  -0.01563  -0.01204  -0.01001  -0.00285
  Beta virt. eigenvalues --   -0.00095   0.00025   0.00326   0.00614   0.00771

 Mulliken charges and spin densities:
               1          2
     1  Na  -0.631923   0.258875
     2  Na   0.557985   0.140747
     3  Na   0.067012   0.106686
     4  Na   0.236660   0.031019
     5  Na  -0.743228   0.276791
     6  Na   0.640744   0.265266
     7  Na  -0.127250  -0.079384
 Sum of Mulliken charges =  -0.00000   1.00000

 Dipole moment (field-independent basis, Debye):
    X=             -0.7906    Y=              0.4472    Z=              0.4516  Tot=              1.0144
 Quadrupole moment (field-independent basis, Debye-Ang):
   XX=            -51.1325   YY=            -72.1295   ZZ=            -71.2606
   XY=             -3.0478   XZ=              2.0192   YZ=              0.6086

 Normal termination of Gaussian 16 at Mon Nov 13 17:59:02 2023.
