 Gaussian 16, Revision B.01,
 Gaussian 16:  ES64L-G16RevB.01 20-Dec-2017

 -------------------------
 #P B3LYP/6-311+g(d) force
 -------------------------

 ------------------------------
 Gaussian input prepared by ASE
 ------------------------------
 Symbolic Z-matrix:
 Charge =  0 Multiplicity = 2

                         Standard orientation:
 ---------------------------------------------------------------------
 Center     Atomic      Atomic             Coordinates (Angstroms)
 Number     Number       Type             X           Y           Z
 ---------------------------------------------------------------------
      1         11           0       -2.210200   -1.503341    0.324232
      2         11           0       -2.895386    1.136554   -0.929256
      3         11           0        2.699090   -2.547103    0.034738
      4         11           0        0.299060   -1.383324   -1.318633
      5         11           0       -0.680137    0.185143    2.279065
      6         11           0        0.035457    1.448225   -0.349863
      7         11           0        2.752115    2.663845   -0.040283
 ---------------------------------------------------------------------

 SCF Done:  E(UB3LYP) =  -1136.10275722     A.U. after   21 cycles

 The electronic state is 2-A.
 Alpha  occ. eigenvalues --  -38.44720 -38.44717 -38.44424 -38.44368 -38.44135
 Alpha  occ. eigenvalues --  -38.43466 -38.42887  -2.20649  -2.20635  -2.20366
 Alpha  occ. eigenvalues --   -2.20210  -2.19923  -2.19450  -2.18971  -1.14376
 Alpha  occ. eigenvalues --   -1.14341  -1.14330  -1.14311  -1.14242  -1.14225
 Alpha  occ. eigenvalues --   -1.14062  -1.13999  -1.13943  -1.13926  -1.13856
 Alpha  occ. eigenvalues --   -1.13847  -1.13635  -1.13568  -1.13561  -1.13174
 Alpha  occ. eigenvalues --   -1.13102  -1.13051  -1.12657  -1.12619  -1.12587
 Alpha  occ. eigenvalues --   -0.19257  -0.12908  -0.12050  -0.11513
 Alpha virt. eigenvalues --   -0.06245  -0.06013  -0.03268  -0.03143  -0.02977
 Alpha virt. eigenvalues --   -0.02722  -0.02007  -0.01617  -0.00232  -0.00008
 Alpha virt. eigenvalues --    0.00140   0.00202   0.00590   0.00628   0.00738

  Beta  occ. eigenvalues --  -38.44679 -38.44599 -38.44434 -38.44341 -38.44148
  Beta  occ. eigenvalues --  -38.43438 -38.42862  -2.20562  -2.20434  -2.20326
  Beta  occ. eigenvalues --   -2.20229  -2.19948  -2.19400  -2.18932  -1.14302
  Beta  occ. eigenvalues --   -1.14283  -1.14234  -1.14172  -1.14155  -1.14081
  Beta  occ. eigenvalues --   -1.14032  -1.13936  -1.13922  -1.13897  -1.13865
  Beta  occ. eigenvalues --   -1.13860  -1.13651  -1.13582  -1.13578  -1.13142
  Beta  occ. eigenvalues --   -1.13067  -1.13003  -1.12604  -1.12588  -1.12549
  Beta  occ. eigenvalues --   -0.18381  -0.12784  -0.11939
  Beta virt. eigenvalues --   -0.07283  -0.06081  -0.05868  -0.03156  -0.02577
  Beta virt. eigenvalues --   -0.02305  -0.02045  -0.01573  -0.01503  -0.00019
  Beta virt. eigenvalues --    0.00058   0.00148   0.00268   0.00653   0.00754

 Mulliken charges and spin densities:
               1          2
     1  Na   0.341886   0.142771
     2  Na   0.351329   0.208162
     3  Na  -0.036645  -0.019490
     4  Na   0.068036   0.181821
     5  Na  -0.213451   0.477712
     6  Na  -0.518253   0.080459
     7  Na   0.007098  -0.071434
 Sum of Mulliken charges =  -0.00000   1.00000

 Dipole moment (field-independent basis, Debye):
    X=             -0.0675    Y=             -0.1514    Z=              0.5606  Tot=              0.5846
 Quadrupole moment (field-independent basis, Debye-Ang):
   XX=            -52.9186   YY=            -69.3725   ZZ=            -70.9095
   XY=             -0.7959   XZ=              3.5443   YZ=             -2.3215

 Normal termination of Gaussian 16 at Mon Nov 13 18:32:30 2023.
