 Gaussian 16, Revision B.01,
 Gaussian 16:  ES64L-G16RevB.01 20-Dec-2017

 -------------------------
 #P B3LYP/6-311+g(d) force
 -------------------------

 ------------------------------
 Gaussian input prepared by ASE
 ------------------------------
 Symbolic Z-matrix:
 Charge =  0 Multiplicity = 2

                         Standard orientation:
 ---------------------------------------------------------------------
 Center     Atomic      Atomic             Coordinates (Angstroms)
 Number     Number       Type             X           Y           Z
 ---------------------------------------------------------------------
      1         11           0       -0.691357   -1.826870    0.042608
      2         11           0        0.792605   -0.046842   -1.868152
      3         11           0        2.281351   -1.485584    0.274127
      4         11           0        2.252227    1.512378    0.207355
      5         11           0       -1.009961    0.069012    2.356646
      6         11           0       -0.716710    1.823982   -0.067014
      7         11           0       -2.908157   -0.046075   -0.945569
 ---------------------------------------------------------------------

 SCF Done:  E(UB3LYP) =  -1136.10846988     A.U. after   21 cycles

 The electronic state is 2-A.
 Alpha  occ. eigenvalues --  -38.45036 -38.44615 -38.44203 -38.43432 -38.43399
 Alpha  occ. eigenvalues --  -38.42458 -38.42456  -2.20971  -2.20537  -2.20316
 Alpha  occ. eigenvalues --   -2.19424  -2.19387  -2.18552  -2.18548  -1.14670
 Alpha  occ. eigenvalues --   -1.14613  -1.14547  -1.14236  -1.14208  -1.14147
 Alpha  occ. eigenvalues --   -1.14059  -1.13964  -1.13952  -1.13200  -1.13122
 Alpha  occ. eigenvalues --   -1.13087  -1.13056  -1.13012  -1.12937  -1.12248
 Alpha  occ. eigenvalues --   -1.12238  -1.12237  -1.12218  -1.12165  -1.12153
 Alpha  occ. eigenvalues --   -0.20349  -0.13857  -0.12428  -0.11726
 Alpha virt. eigenvalues --   -0.05662  -0.04394  -0.04245  -0.03575  -0.03026
 Alpha virt. eigenvalues --   -0.02935  -0.01514  -0.00426  -0.00343   0.00329
 Alpha virt. eigenvalues --    0.00531   0.00672   0.00849   0.00912   0.01057

  Beta  occ. eigenvalues --  -38.44936 -38.44591 -38.44142 -38.43429 -38.43396
  Beta  occ. eigenvalues --  -38.42439 -38.42438  -2.20788  -2.20495  -2.20206
  Beta  occ. eigenvalues --   -2.19420  -2.19384  -2.18527  -2.18523  -1.14550
  Beta  occ. eigenvalues --   -1.14478  -1.14420  -1.14207  -1.14181  -1.14099
  Beta  occ. eigenvalues --   -1.13994  -1.13876  -1.13872  -1.13199  -1.13122
  Beta  occ. eigenvalues --   -1.13086  -1.13030  -1.12988  -1.12937  -1.12237
  Beta  occ. eigenvalues --   -1.12211  -1.12162  -1.12152  -1.12151  -1.12147
  Beta  occ. eigenvalues --   -0.19489  -0.13642  -0.11450
  Beta virt. eigenvalues --   -0.08264  -0.05505  -0.04204  -0.03638  -0.03261
  Beta virt. eigenvalues --   -0.02304  -0.02121  -0.01367  -0.00316  -0.00157
  Beta virt. eigenvalues --    0.00361   0.00594   0.00671   0.00993   0.01053

 Mulliken charges and spin densities:
               1          2
     1  Na   0.448536  -0.068324
     2  Na  -0.878729   0.477433
     3  Na   0.272900   0.034097
     4  Na   0.267073   0.031810
     5  Na  -0.715425   0.431033
     6  Na   0.444164  -0.084814
     7  Na   0.161481   0.178765
 Sum of Mulliken charges =  -0.00000   1.00000

 Dipole moment (field-independent basis, Debye):
    X=             -0.4635    Y=              0.0038    Z=              0.3431  Tot=              0.5767
 Quadrupole moment (field-independent basis, Debye-Ang):
   XX=            -56.1500   YY=            -77.3473   ZZ=            -62.4995
   XY=              0.0522   XZ=              2.7088   YZ=              0.2086

 Normal termination of Gaussian 16 at Mon Nov 13 18:55:51 2023.
