 Gaussian 16, Revision B.01,
 Gaussian 16:  ES64L-G16RevB.01 20-Dec-2017

 -------------------------
 #P B3LYP/6-311+g(d) force
 -------------------------

 ------------------------------
 Gaussian input prepared by ASE
 ------------------------------
 Symbolic Z-matrix:
 Charge =  0 Multiplicity = 2

                         Standard orientation:
 ---------------------------------------------------------------------
 Center     Atomic      Atomic             Coordinates (Angstroms)
 Number     Number       Type             X           Y           Z
 ---------------------------------------------------------------------
      1         11           0       -1.542404   -1.963723   -1.143302
      2         11           0        2.774976   -0.135909   -1.552240
      3         11           0        3.080888   -0.637983    1.387441
      4         11           0        0.359625   -0.095073    0.236703
      5         11           0       -2.178282   -0.940676    1.597393
      6         11           0       -2.280722    0.916084   -0.750632
      7         11           0       -0.214081    2.857279    0.224637
 ---------------------------------------------------------------------

 SCF Done:  E(UB3LYP) =  -1136.10040510     A.U. after   21 cycles

 The electronic state is 2-A.
 Alpha  occ. eigenvalues --  -38.44811 -38.44715 -38.44187 -38.43677 -38.43416
 Alpha  occ. eigenvalues --  -38.42767 -38.42333  -2.20698  -2.20600  -2.20181
 Alpha  occ. eigenvalues --   -2.19763  -2.19411  -2.19067  -2.18233  -1.14471
 Alpha  occ. eigenvalues --   -1.14378  -1.14309  -1.14290  -1.14209  -1.14168
 Alpha  occ. eigenvalues --   -1.13947  -1.13846  -1.13786  -1.13513  -1.13426
 Alpha  occ. eigenvalues --   -1.13385  -1.13134  -1.13031  -1.13001  -1.12765
 Alpha  occ. eigenvalues --   -1.12738  -1.12694  -1.11926  -1.11881  -1.11846
 Alpha  occ. eigenvalues --   -0.19312  -0.14409  -0.11536  -0.10807
 Alpha virt. eigenvalues --   -0.05975  -0.05474  -0.04066  -0.03456  -0.02280
 Alpha virt. eigenvalues --   -0.02088  -0.01828  -0.00842  -0.00497   0.00148
 Alpha virt. eigenvalues --    0.00325   0.00406   0.00422   0.00800   0.00836

  Beta  occ. eigenvalues --  -38.44789 -38.44694 -38.44140 -38.43659 -38.43384
  Beta  occ. eigenvalues --  -38.42727 -38.42333  -2.20658  -2.20561  -2.20094
  Beta  occ. eigenvalues --   -2.19734  -2.19354  -2.19009  -2.18235  -1.14448
  Beta  occ. eigenvalues --   -1.14340  -1.14281  -1.14256  -1.14182  -1.14138
  Beta  occ. eigenvalues --   -1.13898  -1.13780  -1.13718  -1.13490  -1.13394
  Beta  occ. eigenvalues --   -1.13343  -1.13099  -1.12988  -1.12943  -1.12712
  Beta  occ. eigenvalues --   -1.12665  -1.12617  -1.11928  -1.11880  -1.11837
  Beta  occ. eigenvalues --   -0.18536  -0.14247  -0.11388
  Beta virt. eigenvalues --   -0.06997  -0.05747  -0.04620  -0.03989  -0.03345
  Beta virt. eigenvalues --   -0.01827  -0.01640  -0.01464  -0.00517  -0.00232
  Beta virt. eigenvalues --    0.00240   0.00393   0.00552   0.00654   0.00845

 Mulliken charges and spin densities:
               1          2
     1  Na   0.481813   0.079070
     2  Na   0.690664   0.009492
     3  Na   0.083992  -0.122668
     4  Na  -1.653204   1.430666
     5  Na   0.050601  -0.421593
     6  Na   0.204091   0.106507
     7  Na   0.142043  -0.081475
 Sum of Mulliken charges =  -0.00000   1.00000

 Dipole moment (field-independent basis, Debye):
    X=              0.9158    Y=             -0.3993    Z=             -0.0032  Tot=              0.9990
 Quadrupole moment (field-independent basis, Debye-Ang):
   XX=            -53.7241   YY=            -73.2389   ZZ=            -64.9431
   XY=              0.8772   XZ=             -0.4881   YZ=             -0.0467

 Normal termination of Gaussian 16 at Mon Nov 13 20:14:07 2023.
