 Gaussian 16, Revision B.01,
 Gaussian 16:  ES64L-G16RevB.01 20-Dec-2017

 -------------------------
 #P B3LYP/6-311+g(d) force
 -------------------------

 ------------------------------
 Gaussian input prepared by ASE
 ------------------------------
 Symbolic Z-matrix:
 Charge =  0 Multiplicity = 2

                         Standard orientation:
 ---------------------------------------------------------------------
 Center     Atomic      Atomic             Coordinates (Angstroms)
 Number     Number       Type             X           Y           Z
 ---------------------------------------------------------------------
      1         11           0        0.138551   -0.269117   -1.123828
      2         11           0       -0.248425    2.562401   -0.180636
      3         11           0        3.114298   -0.600107   -0.968933
      4         11           0        1.646665    0.761536    1.257071
      5         11           0       -2.870724   -0.146343   -1.133827
      6         11           0       -1.312939    0.248765    1.409158
      7         11           0       -0.467426   -2.557135    0.740995
 ---------------------------------------------------------------------

 SCF Done:  E(UB3LYP) =  -1136.10754135     A.U. after   22 cycles

 The electronic state is 2-A.
 Alpha  occ. eigenvalues --  -38.44342 -38.44129 -38.43338 -38.43328 -38.43237
 Alpha  occ. eigenvalues --  -38.42944 -38.42838  -2.20262  -2.20025  -2.19447
 Alpha  occ. eigenvalues --   -2.19426  -2.19249  -2.19234  -2.18835  -1.13991
 Alpha  occ. eigenvalues --   -1.13950  -1.13829  -1.13756  -1.13710  -1.13613
 Alpha  occ. eigenvalues --   -1.13380  -1.13192  -1.13142  -1.13114  -1.13034
 Alpha  occ. eigenvalues --   -1.13004  -1.12987  -1.12881  -1.12877  -1.12840
 Alpha  occ. eigenvalues --   -1.12809  -1.12793  -1.12512  -1.12466  -1.12420
 Alpha  occ. eigenvalues --   -0.20130  -0.13549  -0.12148  -0.11649
 Alpha virt. eigenvalues --   -0.05612  -0.04183  -0.04081  -0.03369  -0.02735
 Alpha virt. eigenvalues --   -0.02427  -0.01588  -0.00701  -0.00474   0.00340
 Alpha virt. eigenvalues --    0.00532   0.00582   0.00709   0.00966   0.01027

  Beta  occ. eigenvalues --  -38.44305 -38.44105 -38.43304 -38.43302 -38.43179
  Beta  occ. eigenvalues --  -38.42899 -38.42832  -2.20195  -2.19981  -2.19376
  Beta  occ. eigenvalues --   -2.19338  -2.19206  -2.19160  -2.18828  -1.13946
  Beta  occ. eigenvalues --   -1.13894  -1.13782  -1.13727  -1.13671  -1.13583
  Beta  occ. eigenvalues --   -1.13322  -1.13143  -1.13060  -1.13047  -1.12996
  Beta  occ. eigenvalues --   -1.12956  -1.12900  -1.12825  -1.12817  -1.12796
  Beta  occ. eigenvalues --   -1.12767  -1.12741  -1.12505  -1.12436  -1.12408
  Beta  occ. eigenvalues --   -0.19334  -0.13260  -0.11867
  Beta virt. eigenvalues --   -0.07541  -0.05460  -0.04042  -0.03823  -0.03035
  Beta virt. eigenvalues --   -0.02049  -0.01536  -0.01301  -0.00664  -0.00160
  Beta virt. eigenvalues --    0.00376   0.00579   0.00615   0.00766   0.00987

 Mulliken charges and spin densities:
               1          2
     1  Na  -1.635113   0.151958
     2  Na   0.100495   0.278526
     3  Na   0.846092   0.057656
     4  Na   0.299593   0.096618
     5  Na   0.467954   0.024995
     6  Na   0.103918   0.300468
     7  Na  -0.182940   0.089779
 Sum of Mulliken charges =  -0.00000   1.00000

 Dipole moment (field-independent basis, Debye):
    X=             -0.1408    Y=             -0.2032    Z=             -0.2121  Tot=              0.3257
 Quadrupole moment (field-independent basis, Debye-Ang):
   XX=            -55.8179   YY=            -67.9821   ZZ=            -68.0206
   XY=             -0.5498   XZ=              1.1829   YZ=             -1.2439

 Normal termination of Gaussian 16 at Mon Nov 13 18:54:32 2023.
