 Gaussian 16, Revision B.01,
 Gaussian 16:  ES64L-G16RevB.01 20-Dec-2017

 -------------------------
 #P B3LYP/6-311+g(d) force
 -------------------------

 ------------------------------
 Gaussian input prepared by ASE
 ------------------------------
 Symbolic Z-matrix:
 Charge =  0 Multiplicity = 2

                         Standard orientation:
 ---------------------------------------------------------------------
 Center     Atomic      Atomic             Coordinates (Angstroms)
 Number     Number       Type             X           Y           Z
 ---------------------------------------------------------------------
      1         11           0        0.042548   -0.002183   -1.492268
      2         11           0        0.801619   -2.513055   -0.000020
      3         11           0        2.667388    0.018729    0.000051
      4         11           0        0.766633    2.522922    0.000298
      5         11           0        0.041264    0.001504    1.492636
      6         11           0       -2.170291    1.399478   -0.002583
      7         11           0       -2.149160   -1.427397    0.001886
 ---------------------------------------------------------------------

 SCF Done:  E(UB3LYP) =  -1136.10671695     A.U. after   20 cycles

 The electronic state is 2-A.
 Alpha  occ. eigenvalues --  -38.43554 -38.43535 -38.43534 -38.43341 -38.43340
 Alpha  occ. eigenvalues --  -38.43010 -38.43010  -2.19628  -2.19584  -2.19578
 Alpha  occ. eigenvalues --   -2.19368  -2.19366  -2.19303  -2.19282  -1.13597
 Alpha  occ. eigenvalues --   -1.13432  -1.13374  -1.13354  -1.13300  -1.13250
 Alpha  occ. eigenvalues --   -1.13246  -1.13223  -1.13122  -1.13121  -1.13081
 Alpha  occ. eigenvalues --   -1.13071  -1.13025  -1.12991  -1.12964  -1.12936
 Alpha  occ. eigenvalues --   -1.12867  -1.12850  -1.12845  -1.12820  -1.12808
 Alpha  occ. eigenvalues --   -0.20961  -0.13655  -0.13367  -0.11051
 Alpha virt. eigenvalues --   -0.05055  -0.04750  -0.04678  -0.03100  -0.02886
 Alpha virt. eigenvalues --   -0.01936  -0.01106  -0.01007   0.00072   0.00340
 Alpha virt. eigenvalues --    0.00387   0.00417   0.00985   0.01026   0.01066

  Beta  occ. eigenvalues --  -38.43544 -38.43523 -38.43522 -38.43331 -38.43330
  Beta  occ. eigenvalues --  -38.42929 -38.42929  -2.19612  -2.19568  -2.19565
  Beta  occ. eigenvalues --   -2.19354  -2.19351  -2.19163  -2.19138  -1.13584
  Beta  occ. eigenvalues --   -1.13408  -1.13363  -1.13334  -1.13247  -1.13233
  Beta  occ. eigenvalues --   -1.13190  -1.13157  -1.13111  -1.13099  -1.13072
  Beta  occ. eigenvalues --   -1.13006  -1.12968  -1.12962  -1.12934  -1.12932
  Beta  occ. eigenvalues --   -1.12766  -1.12760  -1.12745  -1.12728  -1.12726
  Beta  occ. eigenvalues --   -0.20199  -0.13300  -0.13029
  Beta virt. eigenvalues --   -0.06949  -0.05082  -0.04749  -0.04658  -0.02181
  Beta virt. eigenvalues --   -0.02010  -0.01037  -0.00949  -0.00915   0.00189
  Beta virt. eigenvalues --    0.00316   0.00371   0.00412   0.01006   0.01044

 Mulliken charges and spin densities:
               1          2
     1  Na  -0.850102   0.517264
     2  Na   0.336839  -0.024411
     3  Na   0.286065  -0.039100
     4  Na   0.335903  -0.024296
     5  Na  -0.849430   0.517753
     6  Na   0.368956   0.026099
     7  Na   0.371768   0.026690
 Sum of Mulliken charges =  -0.00000   1.00000

 Dipole moment (field-independent basis, Debye):
    X=              0.1809    Y=              0.0019    Z=              0.0003  Tot=              0.1809
 Quadrupole moment (field-independent basis, Debye-Ang):
   XX=            -59.1816   YY=            -60.3419   ZZ=            -74.3078
   XY=             -0.0107   XZ=              0.0029   YZ=             -0.0087

 Normal termination of Gaussian 16 at Mon Nov 13 20:34:51 2023.
