 Gaussian 16, Revision B.01,
 Gaussian 16:  ES64L-G16RevB.01 20-Dec-2017

 -------------------------
 #P B3LYP/6-311+g(d) force
 -------------------------

 ------------------------------
 Gaussian input prepared by ASE
 ------------------------------
 Symbolic Z-matrix:
 Charge =  0 Multiplicity = 2

                         Standard orientation:
 ---------------------------------------------------------------------
 Center     Atomic      Atomic             Coordinates (Angstroms)
 Number     Number       Type             X           Y           Z
 ---------------------------------------------------------------------
      1         11           0       -0.601889   -0.112386   -1.301026
      2         11           0        0.936546   -1.199372    1.036826
      3         11           0        3.656582   -1.072120   -0.221216
      4         11           0        1.845153    1.316817   -0.315560
      5         11           0       -0.867466    2.541713    0.064475
      6         11           0       -1.777163    0.031317    1.444729
      7         11           0       -3.191763   -1.505969   -0.708227
 ---------------------------------------------------------------------

 SCF Done:  E(UB3LYP) =  -1136.10006674     A.U. after   23 cycles

 The electronic state is 2-A.
 Alpha  occ. eigenvalues --  -38.44683 -38.43971 -38.43957 -38.43873 -38.43689
 Alpha  occ. eigenvalues --  -38.43507 -38.42906  -2.20576  -2.20054  -2.20019
 Alpha  occ. eigenvalues --   -2.19877  -2.19791  -2.19593  -2.18900  -1.14300
 Alpha  occ. eigenvalues --   -1.14256  -1.14196  -1.13948  -1.13833  -1.13731
 Alpha  occ. eigenvalues --   -1.13698  -1.13671  -1.13601  -1.13593  -1.13499
 Alpha  occ. eigenvalues --   -1.13481  -1.13426  -1.13416  -1.13325  -1.13276
 Alpha  occ. eigenvalues --   -1.13225  -1.13210  -1.12573  -1.12544  -1.12513
 Alpha  occ. eigenvalues --   -0.20050  -0.14566  -0.12032  -0.11010
 Alpha virt. eigenvalues --   -0.06730  -0.04870  -0.04038  -0.03336  -0.02416
 Alpha virt. eigenvalues --   -0.02232  -0.02058  -0.01246  -0.00289   0.00114
 Alpha virt. eigenvalues --    0.00182   0.00475   0.00705   0.00790   0.00877

  Beta  occ. eigenvalues --  -38.44683 -38.43945 -38.43906 -38.43821 -38.43631
  Beta  occ. eigenvalues --  -38.43492 -38.42899  -2.20577  -2.19964  -2.19930
  Beta  occ. eigenvalues --   -2.19830  -2.19690  -2.19569  -2.18892  -1.14299
  Beta  occ. eigenvalues --   -1.14251  -1.14192  -1.13879  -1.13774  -1.13669
  Beta  occ. eigenvalues --   -1.13616  -1.13604  -1.13547  -1.13528  -1.13450
  Beta  occ. eigenvalues --   -1.13447  -1.13363  -1.13337  -1.13256  -1.13246
  Beta  occ. eigenvalues --   -1.13204  -1.13170  -1.12570  -1.12534  -1.12480
  Beta  occ. eigenvalues --   -0.19314  -0.14342  -0.11780
  Beta virt. eigenvalues --   -0.06940  -0.06561  -0.04788  -0.03613  -0.03022
  Beta virt. eigenvalues --   -0.02266  -0.01688  -0.01187  -0.01051   0.00013
  Beta virt. eigenvalues --    0.00145   0.00193   0.00561   0.00834   0.00874

 Mulliken charges and spin densities:
               1          2
     1  Na  -0.745936   0.346556
     2  Na  -0.837198   0.240724
     3  Na   0.799266   0.036289
     4  Na   0.354426   0.077834
     5  Na  -0.156624   0.292981
     6  Na   0.712593  -0.074335
     7  Na  -0.126527   0.079952
 Sum of Mulliken charges =  -0.00000   1.00000

 Dipole moment (field-independent basis, Debye):
    X=              0.5379    Y=             -0.0894    Z=              0.0730  Tot=              0.5502
 Quadrupole moment (field-independent basis, Debye-Ang):
   XX=            -50.0510   YY=            -69.7811   ZZ=            -73.0837
   XY=             -1.9438   XZ=             -2.1684   YZ=              1.9302

 Normal termination of Gaussian 16 at Mon Nov 13 16:46:18 2023.
