 Gaussian 16, Revision B.01,
 Gaussian 16:  ES64L-G16RevB.01 20-Dec-2017

 -------------------------
 #P B3LYP/6-311+g(d) force
 -------------------------

 ------------------------------
 Gaussian input prepared by ASE
 ------------------------------
 Symbolic Z-matrix:
 Charge =  0 Multiplicity = 2

                         Standard orientation:
 ---------------------------------------------------------------------
 Center     Atomic      Atomic             Coordinates (Angstroms)
 Number     Number       Type             X           Y           Z
 ---------------------------------------------------------------------
      1         11           0       -0.416810    0.117757   -1.498592
      2         11           0        0.032291    2.746820   -0.122298
      3         11           0        2.503176   -0.611000   -1.482745
      4         11           0        2.547570   -0.346052    1.507900
      5         11           0       -0.399325    0.243801    1.482979
      6         11           0       -3.015428    0.126736    0.009801
      7         11           0       -1.251474   -2.278063    0.102955
 ---------------------------------------------------------------------

 SCF Done:  E(UB3LYP) =  -1136.10678173     A.U. after   23 cycles

 The electronic state is 2-A.
 Alpha  occ. eigenvalues --  -38.44455 -38.44376 -38.44291 -38.43490 -38.43469
 Alpha  occ. eigenvalues --  -38.43158 -38.42543  -2.20443  -2.20277  -2.20190
 Alpha  occ. eigenvalues --   -2.19698  -2.19668  -2.19146  -2.18456  -1.14211
 Alpha  occ. eigenvalues --   -1.14137  -1.14040  -1.14027  -1.13995  -1.13917
 Alpha  occ. eigenvalues --   -1.13871  -1.13782  -1.13758  -1.13531  -1.13363
 Alpha  occ. eigenvalues --   -1.13318  -1.13313  -1.13284  -1.13238  -1.12836
 Alpha  occ. eigenvalues --   -1.12784  -1.12734  -1.12162  -1.12125  -1.12042
 Alpha  occ. eigenvalues --   -0.19889  -0.13848  -0.11926  -0.11724
 Alpha virt. eigenvalues --   -0.05820  -0.04601  -0.04021  -0.03312  -0.03130
 Alpha virt. eigenvalues --   -0.02563  -0.01681  -0.00591  -0.00434   0.00304
 Alpha virt. eigenvalues --    0.00464   0.00531   0.00709   0.00936   0.00990

  Beta  occ. eigenvalues --  -38.44450 -38.44336 -38.44253 -38.43421 -38.43402
  Beta  occ. eigenvalues --  -38.43151 -38.42540  -2.20436  -2.20205  -2.20122
  Beta  occ. eigenvalues --   -2.19576  -2.19549  -2.19137  -2.18454  -1.14203
  Beta  occ. eigenvalues --   -1.14110  -1.14028  -1.13984  -1.13936  -1.13849
  Beta  occ. eigenvalues --   -1.13824  -1.13737  -1.13710  -1.13451  -1.13283
  Beta  occ. eigenvalues --   -1.13226  -1.13222  -1.13198  -1.13144  -1.12826
  Beta  occ. eigenvalues --   -1.12747  -1.12732  -1.12162  -1.12100  -1.12044
  Beta  occ. eigenvalues --   -0.19173  -0.13586  -0.11503
  Beta virt. eigenvalues --   -0.07756  -0.05776  -0.04051  -0.03815  -0.03204
  Beta virt. eigenvalues --   -0.01983  -0.01857  -0.01626  -0.00569  -0.00081
  Beta virt. eigenvalues --    0.00334   0.00476   0.00697   0.00746   0.00939

 Mulliken charges and spin densities:
               1          2
     1  Na  -0.753328   0.171672
     2  Na  -0.118032   0.157301
     3  Na   0.059277   0.098744
     4  Na   0.012197   0.101206
     5  Na  -0.715117   0.138659
     6  Na   1.661857   0.176661
     7  Na  -0.146856   0.155757
 Sum of Mulliken charges =  -0.00000   1.00000

 Dipole moment (field-independent basis, Debye):
    X=             -0.0087    Y=             -0.0789    Z=              0.0190  Tot=              0.0816
 Quadrupole moment (field-independent basis, Debye-Ang):
   XX=            -54.8034   YY=            -71.2183   ZZ=            -68.0447
   XY=             -0.3629   XZ=              0.0772   YZ=             -0.0654

 Normal termination of Gaussian 16 at Mon Nov 13 17:33:20 2023.
