 Gaussian 16, Revision B.01,
 Gaussian 16:  ES64L-G16RevB.01 20-Dec-2017

 -------------------------
 #P B3LYP/6-311+g(d) force
 -------------------------

 ------------------------------
 Gaussian input prepared by ASE
 ------------------------------
 Symbolic Z-matrix:
 Charge =  0 Multiplicity = 2

                         Standard orientation:
 ---------------------------------------------------------------------
 Center     Atomic      Atomic             Coordinates (Angstroms)
 Number     Number       Type             X           Y           Z
 ---------------------------------------------------------------------
      1         11           0       -3.127970    0.005801    0.413041
      2         11           0        2.741684   -2.165388    0.097902
      3         11           0        2.830640    2.113585    0.100900
      4         11           0        0.904363    0.014992   -0.482527
      5         11           0       -1.329399   -1.483633   -1.015222
      6         11           0       -0.726556   -0.098316    1.713093
      7         11           0       -1.292762    1.612959   -0.827186
 ---------------------------------------------------------------------

 SCF Done:  E(UB3LYP) =  -1136.06913568     A.U. after   29 cycles

 The electronic state is 2-A.
 Alpha  occ. eigenvalues --  -38.45512 -38.44608 -38.44515 -38.44474 -38.43949
 Alpha  occ. eigenvalues --  -38.43902 -38.43313  -2.21638  -2.20742  -2.20324
 Alpha  occ. eigenvalues --   -2.20286  -2.20087  -2.20035  -2.19668  -1.15487
 Alpha  occ. eigenvalues --   -1.15327  -1.15301  -1.14586  -1.14349  -1.14269
 Alpha  occ. eigenvalues --   -1.14121  -1.14063  -1.13983  -1.13970  -1.13938
 Alpha  occ. eigenvalues --   -1.13933  -1.13899  -1.13839  -1.13725  -1.13667
 Alpha  occ. eigenvalues --   -1.13638  -1.13542  -1.13302  -1.13230  -1.13131
 Alpha  occ. eigenvalues --   -0.20544  -0.14294  -0.11455  -0.11256
 Alpha virt. eigenvalues --   -0.06728  -0.05809  -0.03568  -0.03016  -0.02439
 Alpha virt. eigenvalues --   -0.01917  -0.01863  -0.01372  -0.00310   0.00129
 Alpha virt. eigenvalues --    0.00293   0.00322   0.00678   0.00788   0.00818

  Beta  occ. eigenvalues --  -38.45479 -38.44525 -38.44522 -38.44483 -38.43896
  Beta  occ. eigenvalues --  -38.43857 -38.43279  -2.21589  -2.20587  -2.20345
  Beta  occ. eigenvalues --   -2.20303  -2.19997  -2.19960  -2.19616  -1.15460
  Beta  occ. eigenvalues --   -1.15270  -1.15216  -1.14487  -1.14241  -1.14157
  Beta  occ. eigenvalues --   -1.14108  -1.14065  -1.13981  -1.13952  -1.13944
  Beta  occ. eigenvalues --   -1.13935  -1.13912  -1.13790  -1.13669  -1.13614
  Beta  occ. eigenvalues --   -1.13530  -1.13442  -1.13263  -1.13134  -1.13102
  Beta  occ. eigenvalues --   -0.19646  -0.14097  -0.11293
  Beta virt. eigenvalues --   -0.06845  -0.06583  -0.05757  -0.02993  -0.02823
  Beta virt. eigenvalues --   -0.02318  -0.01414  -0.01248  -0.00943  -0.00023
  Beta virt. eigenvalues --    0.00184   0.00275   0.00376   0.00723   0.00785

 Mulliken charges and spin densities:
               1          2
     1  Na   1.383982   0.215610
     2  Na  -0.181450  -0.247764
     3  Na  -0.352836  -0.234131
     4  Na  -0.328298   0.622464
     5  Na  -0.088466   0.241036
     6  Na  -0.745336   0.152333
     7  Na   0.312404   0.250451
 Sum of Mulliken charges =  -0.00000   1.00000

 Dipole moment (field-independent basis, Debye):
    X=              0.3470    Y=             -0.0652    Z=              0.2477  Tot=              0.4313
 Quadrupole moment (field-independent basis, Debye-Ang):
   XX=            -47.0970   YY=            -69.9223   ZZ=            -73.4544
   XY=             -0.1859   XZ=              2.1844   YZ=              0.1198

 Normal termination of Gaussian 16 at Mon Nov 13 20:27:54 2023.
