 Gaussian 16, Revision B.01,
 Gaussian 16:  ES64L-G16RevB.01 20-Dec-2017

 -------------------------
 #P B3LYP/6-311+g(d) force
 -------------------------

 ------------------------------
 Gaussian input prepared by ASE
 ------------------------------
 Symbolic Z-matrix:
 Charge =  0 Multiplicity = 2

                         Standard orientation:
 ---------------------------------------------------------------------
 Center     Atomic      Atomic             Coordinates (Angstroms)
 Number     Number       Type             X           Y           Z
 ---------------------------------------------------------------------
      1         11           0        0.592110    0.920143   -0.037012
      2         11           0       -0.914677   -0.714521    1.986571
      3         11           0       -2.021101    2.205381   -0.779390
      4         11           0       -3.118842   -0.490108   -0.037292
      5         11           0       -0.507921   -1.768606   -0.785319
      6         11           0        2.445895   -1.268991   -0.902579
      7         11           0        3.524536    1.116701    0.555020
 ---------------------------------------------------------------------

 SCF Done:  E(UB3LYP) =  -1136.09621558     A.U. after   25 cycles

 The electronic state is 2-A.
 Alpha  occ. eigenvalues --  -38.45350 -38.45022 -38.44203 -38.44050 -38.43648
 Alpha  occ. eigenvalues --  -38.43119 -38.42826  -2.21334  -2.20906  -2.20190
 Alpha  occ. eigenvalues --   -2.20058  -2.19810  -2.19024  -2.18905  -1.15032
 Alpha  occ. eigenvalues --   -1.15019  -1.14968  -1.14625  -1.14576  -1.14523
 Alpha  occ. eigenvalues --   -1.13952  -1.13836  -1.13826  -1.13791  -1.13691
 Alpha  occ. eigenvalues --   -1.13638  -1.13505  -1.13460  -1.13438  -1.12700
 Alpha  occ. eigenvalues --   -1.12685  -1.12634  -1.12604  -1.12563  -1.12494
 Alpha  occ. eigenvalues --   -0.19784  -0.14890  -0.11614  -0.10980
 Alpha virt. eigenvalues --   -0.07186  -0.05188  -0.03940  -0.03401  -0.02751
 Alpha virt. eigenvalues --   -0.02306  -0.01915  -0.01027  -0.00344   0.00005
 Alpha virt. eigenvalues --    0.00091   0.00288   0.00479   0.00813   0.00825

  Beta  occ. eigenvalues --  -38.45339 -38.45010 -38.44174 -38.43963 -38.43626
  Beta  occ. eigenvalues --  -38.43106 -38.42794  -2.21319  -2.20883  -2.20140
  Beta  occ. eigenvalues --   -2.19896  -2.19778  -2.19001  -2.18852  -1.15027
  Beta  occ. eigenvalues --   -1.14986  -1.14944  -1.14612  -1.14557  -1.14501
  Beta  occ. eigenvalues --   -1.13916  -1.13789  -1.13757  -1.13728  -1.13580
  Beta  occ. eigenvalues --   -1.13530  -1.13456  -1.13440  -1.13371  -1.12687
  Beta  occ. eigenvalues --   -1.12670  -1.12607  -1.12573  -1.12520  -1.12423
  Beta  occ. eigenvalues --   -0.19086  -0.14626  -0.11322
  Beta virt. eigenvalues --   -0.07128  -0.06975  -0.04903  -0.03432  -0.03142
  Beta virt. eigenvalues --   -0.02671  -0.01728  -0.01096  -0.00907  -0.00037
  Beta virt. eigenvalues --    0.00054   0.00167   0.00298   0.00680   0.00856

 Mulliken charges and spin densities:
               1          2
     1  Na  -1.693808   0.647867
     2  Na  -0.234649   0.014269
     3  Na  -0.027521  -0.097599
     4  Na   1.321977   0.402748
     5  Na  -0.071849   0.222117
     6  Na   0.058282  -0.111356
     7  Na   0.647568  -0.078047
 Sum of Mulliken charges =  -0.00000   1.00000

 Dipole moment (field-independent basis, Debye):
    X=              0.4930    Y=             -0.3647    Z=              0.3525  Tot=              0.7074
 Quadrupole moment (field-independent basis, Debye-Ang):
   XX=            -46.4671   YY=            -74.7794   ZZ=            -72.0770
   XY=              2.5569   XZ=              0.8914   YZ=              1.5018

 Normal termination of Gaussian 16 at Mon Nov 13 16:17:15 2023.
