 Gaussian 16, Revision B.01,
 Gaussian 16:  ES64L-G16RevB.01 20-Dec-2017

 -------------------------
 #P B3LYP/6-311+g(d) force
 -------------------------

 ------------------------------
 Gaussian input prepared by ASE
 ------------------------------
 Symbolic Z-matrix:
 Charge =  0 Multiplicity = 2

                         Standard orientation:
 ---------------------------------------------------------------------
 Center     Atomic      Atomic             Coordinates (Angstroms)
 Number     Number       Type             X           Y           Z
 ---------------------------------------------------------------------
      1         11           0        0.439677    0.000413   -1.734465
      2         11           0       -1.267692   -1.485501    0.249347
      3         11           0       -3.826673    0.000257   -0.208750
      4         11           0       -1.267849    1.484365    0.250767
      5         11           0        0.838233   -0.000937    1.802178
      6         11           0        2.541081    1.488115   -0.179241
      7         11           0        2.543224   -1.486712   -0.179836
 ---------------------------------------------------------------------

 SCF Done:  E(UB3LYP) =  -1136.09168352     A.U. after   31 cycles

 The electronic state is 2-A.
 Alpha  occ. eigenvalues --  -38.46187 -38.44356 -38.43865 -38.43861 -38.43756
 Alpha  occ. eigenvalues --  -38.43108 -38.43108  -2.22056  -2.20460  -2.19893
 Alpha  occ. eigenvalues --   -2.19865  -2.19850  -2.19197  -2.19170  -1.15752
 Alpha  occ. eigenvalues --   -1.15719  -1.15682  -1.14201  -1.14164  -1.14064
 Alpha  occ. eigenvalues --   -1.13764  -1.13645  -1.13589  -1.13575  -1.13500
 Alpha  occ. eigenvalues --   -1.13493  -1.13392  -1.13388  -1.13376  -1.13040
 Alpha  occ. eigenvalues --   -1.12855  -1.12852  -1.12826  -1.12796  -1.12682
 Alpha  occ. eigenvalues --   -0.20504  -0.15079  -0.11603  -0.10884
 Alpha virt. eigenvalues --   -0.07574  -0.04630  -0.04279  -0.03051  -0.02948
 Alpha virt. eigenvalues --   -0.01975  -0.01971  -0.00904  -0.00415  -0.00017
 Alpha virt. eigenvalues --    0.00200   0.00439   0.00441   0.00848   0.00897

  Beta  occ. eigenvalues --  -38.46193 -38.44282 -38.43850 -38.43846 -38.43659
  Beta  occ. eigenvalues --  -38.43089 -38.43088  -2.22067  -2.20326  -2.19853
  Beta  occ. eigenvalues --   -2.19829  -2.19708  -2.19168  -2.19142  -1.15761
  Beta  occ. eigenvalues --   -1.15730  -1.15680  -1.14109  -1.14072  -1.13969
  Beta  occ. eigenvalues --   -1.13727  -1.13535  -1.13525  -1.13516  -1.13467
  Beta  occ. eigenvalues --   -1.13456  -1.13371  -1.13309  -1.13283  -1.13021
  Beta  occ. eigenvalues --   -1.12841  -1.12795  -1.12770  -1.12748  -1.12671
  Beta  occ. eigenvalues --   -0.19703  -0.14820  -0.10590
  Beta virt. eigenvalues --   -0.07493  -0.07391  -0.04662  -0.03443  -0.02932
  Beta virt. eigenvalues --   -0.02547  -0.01299  -0.01253  -0.00875  -0.00140
  Beta virt. eigenvalues --    0.00038   0.00238   0.00415   0.00694   0.00888

 Mulliken charges and spin densities:
               1          2
     1  Na  -0.181459   0.273375
     2  Na  -0.332688   0.171495
     3  Na   0.276534  -0.100409
     4  Na  -0.332950   0.171695
     5  Na   0.456902   0.362241
     6  Na   0.056718   0.060843
     7  Na   0.056944   0.060759
 Sum of Mulliken charges =  -0.00000   1.00000

 Dipole moment (field-independent basis, Debye):
    X=             -1.1564    Y=             -0.0008    Z=             -0.1167  Tot=              1.1622
 Quadrupole moment (field-independent basis, Debye-Ang):
   XX=            -41.0303   YY=            -79.7838   ZZ=            -70.5767
   XY=             -0.0013   XZ=              1.1007   YZ=              0.0064

 Normal termination of Gaussian 16 at Mon Nov 13 18:01:51 2023.
