 Gaussian 16, Revision B.01,
 Gaussian 16:  ES64L-G16RevB.01 20-Dec-2017

 -------------------------
 #P B3LYP/6-311+g(d) force
 -------------------------

 ------------------------------
 Gaussian input prepared by ASE
 ------------------------------
 Symbolic Z-matrix:
 Charge =  0 Multiplicity = 2

                         Standard orientation:
 ---------------------------------------------------------------------
 Center     Atomic      Atomic             Coordinates (Angstroms)
 Number     Number       Type             X           Y           Z
 ---------------------------------------------------------------------
      1         11           0       -1.653625    0.237083    2.023976
      2         11           0       -2.737291    2.240442    0.070732
      3         11           0       -3.664454   -0.097155   -1.566600
      4         11           0       -1.521630   -1.730138   -0.239509
      5         11           0        1.463124   -2.009470   -0.137824
      6         11           0        3.275514    0.064147    1.045206
      7         11           0        4.838362    1.295092   -1.195982
 ---------------------------------------------------------------------

 SCF Done:  E(UB3LYP) =  -1136.10071680     A.U. after   22 cycles

 The electronic state is 2-A.
 Alpha  occ. eigenvalues --  -38.44939 -38.44291 -38.44284 -38.44227 -38.44219
 Alpha  occ. eigenvalues --  -38.44051 -38.43561  -2.20858  -2.20214  -2.20189
 Alpha  occ. eigenvalues --   -2.20108  -2.20019  -2.19927  -2.19552  -1.14548
 Alpha  occ. eigenvalues --   -1.14542  -1.14453  -1.13982  -1.13920  -1.13892
 Alpha  occ. eigenvalues --   -1.13853  -1.13848  -1.13839  -1.13811  -1.13747
 Alpha  occ. eigenvalues --   -1.13718  -1.13667  -1.13665  -1.13634  -1.13599
 Alpha  occ. eigenvalues --   -1.13551  -1.13542  -1.13235  -1.13182  -1.13159
 Alpha  occ. eigenvalues --   -0.17921  -0.14643  -0.11662  -0.11310
 Alpha virt. eigenvalues --   -0.06737  -0.05307  -0.04438  -0.03250  -0.03026
 Alpha virt. eigenvalues --   -0.02932  -0.02094  -0.00990  -0.00902  -0.00581
 Alpha virt. eigenvalues --   -0.00259   0.00164   0.00270   0.00377   0.00544

  Beta  occ. eigenvalues --  -38.44854 -38.44268 -38.44227 -38.44217 -38.44209
  Beta  occ. eigenvalues --  -38.44054 -38.43529  -2.20702  -2.20157  -2.20108
  Beta  occ. eigenvalues --   -2.20071  -2.20016  -2.19934  -2.19498  -1.14452
  Beta  occ. eigenvalues --   -1.14417  -1.14344  -1.13923  -1.13895  -1.13847
  Beta  occ. eigenvalues --   -1.13825  -1.13805  -1.13794  -1.13746  -1.13729
  Beta  occ. eigenvalues --   -1.13665  -1.13663  -1.13648  -1.13635  -1.13598
  Beta  occ. eigenvalues --   -1.13552  -1.13545  -1.13189  -1.13150  -1.13097
  Beta  occ. eigenvalues --   -0.17183  -0.14512  -0.11407
  Beta virt. eigenvalues --   -0.07324  -0.06593  -0.04974  -0.04191  -0.03096
  Beta virt. eigenvalues --   -0.02472  -0.02258  -0.01740  -0.00883  -0.00595
  Beta virt. eigenvalues --   -0.00440  -0.00016   0.00275   0.00351   0.00490

 Mulliken charges and spin densities:
               1          2
     1  Na   0.461712   0.534387
     2  Na  -0.370612   0.109322
     3  Na   0.647059   0.153836
     4  Na  -0.424358   0.243302
     5  Na  -0.178181   0.017338
     6  Na  -0.212955  -0.084504
     7  Na   0.077336   0.026320
 Sum of Mulliken charges =  -0.00000   1.00000

 Dipole moment (field-independent basis, Debye):
    X=             -0.0053    Y=              0.6378    Z=             -0.1935  Tot=              0.6665
 Quadrupole moment (field-independent basis, Debye-Ang):
   XX=            -66.7628   YY=            -69.8373   ZZ=            -65.4583
   XY=              0.4024   XZ=             -2.5699   YZ=             -2.4628

 Normal termination of Gaussian 16 at Mon Nov 13 14:48:49 2023.
