 Gaussian 16, Revision B.01,
 Gaussian 16:  ES64L-G16RevB.01 20-Dec-2017

 -------------------------
 #P B3LYP/6-311+g(d) force
 -------------------------

 ------------------------------
 Gaussian input prepared by ASE
 ------------------------------
 Symbolic Z-matrix:
 Charge =  0 Multiplicity = 2

                         Standard orientation:
 ---------------------------------------------------------------------
 Center     Atomic      Atomic             Coordinates (Angstroms)
 Number     Number       Type             X           Y           Z
 ---------------------------------------------------------------------
      1         11           0        0.340022    0.096525   -1.715693
      2         11           0       -0.861481    2.696065   -0.819672
      3         11           0       -4.197428   -1.663305   -0.069110
      4         11           0       -1.287135   -1.208912    0.444233
      5         11           0       -0.303653    1.296647    1.778703
      6         11           0        2.316572    0.593150    0.491771
      7         11           0        3.993102   -1.810170   -0.110232
 ---------------------------------------------------------------------

 SCF Done:  E(UB3LYP) =  -1136.10118035     A.U. after   22 cycles

 The electronic state is 2-A.
 Alpha  occ. eigenvalues --  -38.44777 -38.44380 -38.44346 -38.44297 -38.43995
 Alpha  occ. eigenvalues --  -38.43739 -38.43635  -2.20781  -2.20217  -2.20177
 Alpha  occ. eigenvalues --   -2.20134  -2.20023  -2.19745  -2.19608  -1.14492
 Alpha  occ. eigenvalues --   -1.14452  -1.14408  -1.13936  -1.13910  -1.13872
 Alpha  occ. eigenvalues --   -1.13852  -1.13832  -1.13827  -1.13813  -1.13785
 Alpha  occ. eigenvalues --   -1.13780  -1.13742  -1.13708  -1.13575  -1.13433
 Alpha  occ. eigenvalues --   -1.13384  -1.13317  -1.13297  -1.13237  -1.13201
 Alpha  occ. eigenvalues --   -0.19301  -0.13217  -0.12129  -0.11460
 Alpha virt. eigenvalues --   -0.06995  -0.05528  -0.03253  -0.03118  -0.02869
 Alpha virt. eigenvalues --   -0.02781  -0.02243  -0.01889  -0.00501  -0.00154
 Alpha virt. eigenvalues --   -0.00074   0.00404   0.00607   0.00688   0.00699

  Beta  occ. eigenvalues --  -38.44694 -38.44391 -38.44362 -38.44263 -38.43911
  Beta  occ. eigenvalues --  -38.43716 -38.43612  -2.20633  -2.20198  -2.20165
  Beta  occ. eigenvalues --   -2.20159  -2.19870  -2.19708  -2.19570  -1.14392
  Beta  occ. eigenvalues --   -1.14348  -1.14290  -1.13922  -1.13883  -1.13869
  Beta  occ. eigenvalues --   -1.13840  -1.13824  -1.13807  -1.13806  -1.13799
  Beta  occ. eigenvalues --   -1.13794  -1.13646  -1.13603  -1.13478  -1.13397
  Beta  occ. eigenvalues --   -1.13330  -1.13288  -1.13256  -1.13196  -1.13172
  Beta  occ. eigenvalues --   -0.18457  -0.13186  -0.11986
  Beta virt. eigenvalues --   -0.07179  -0.06833  -0.05363  -0.02998  -0.02694
  Beta virt. eigenvalues --   -0.02352  -0.02125  -0.02010  -0.01463  -0.00241
  Beta virt. eigenvalues --   -0.00170  -0.00022   0.00465   0.00707   0.00785

 Mulliken charges and spin densities:
               1          2
     1  Na  -0.527705   0.535869
     2  Na   0.188088   0.041373
     3  Na   0.044343  -0.127681
     4  Na  -0.135153   0.203228
     5  Na  -0.051361   0.295496
     6  Na   0.264461   0.174605
     7  Na   0.217328  -0.122890
 Sum of Mulliken charges =  -0.00000   1.00000

 Dipole moment (field-independent basis, Debye):
    X=             -0.3609    Y=              0.5782    Z=             -0.3293  Tot=              0.7570
 Quadrupole moment (field-independent basis, Debye-Ang):
   XX=            -55.6188   YY=            -65.6001   ZZ=            -72.3498
   XY=             -5.8401   XZ=              1.1508   YZ=              0.6273

 Normal termination of Gaussian 16 at Mon Nov 13 15:23:20 2023.
