 Gaussian 16, Revision B.01,
 Gaussian 16:  ES64L-G16RevB.01 20-Dec-2017

 -------------------------
 #P B3LYP/6-311+g(d) force
 -------------------------

 ------------------------------
 Gaussian input prepared by ASE
 ------------------------------
 Symbolic Z-matrix:
 Charge =  0 Multiplicity = 2

                         Standard orientation:
 ---------------------------------------------------------------------
 Center     Atomic      Atomic             Coordinates (Angstroms)
 Number     Number       Type             X           Y           Z
 ---------------------------------------------------------------------
      1         11           0       -1.222053    1.180536   -0.376241
      2         11           0        3.383353   -2.258271   -0.344568
      3         11           0        3.424301    2.489606    0.147387
      4         11           0        1.602198    0.158602   -0.353014
      5         11           0       -0.445331   -1.024107    1.496682
      6         11           0       -2.555153   -1.494913   -0.584727
      7         11           0       -4.187315    0.948547    0.014481
 ---------------------------------------------------------------------

 SCF Done:  E(UB3LYP) =  -1136.08929772     A.U. after   27 cycles

 The electronic state is 2-A.
 Alpha  occ. eigenvalues --  -38.45262 -38.44670 -38.44512 -38.44202 -38.43944
 Alpha  occ. eigenvalues --  -38.43794 -38.42808  -2.21244  -2.20584  -2.20506
 Alpha  occ. eigenvalues --   -2.20001  -2.19865  -2.19793  -2.18907  -1.14987
 Alpha  occ. eigenvalues --   -1.14921  -1.14873  -1.14316  -1.14272  -1.14210
 Alpha  occ. eigenvalues --   -1.14191  -1.14128  -1.14089  -1.13702  -1.13649
 Alpha  occ. eigenvalues --   -1.13623  -1.13525  -1.13508  -1.13495  -1.13480
 Alpha  occ. eigenvalues --   -1.13452  -1.13384  -1.12652  -1.12563  -1.12503
 Alpha  occ. eigenvalues --   -0.18957  -0.14971  -0.11185  -0.10898
 Alpha virt. eigenvalues --   -0.06739  -0.06319  -0.03964  -0.03251  -0.02929
 Alpha virt. eigenvalues --   -0.02465  -0.01604  -0.00950  -0.00888  -0.00594
 Alpha virt. eigenvalues --   -0.00150   0.00001   0.00317   0.00436   0.00551

  Beta  occ. eigenvalues --  -38.45258 -38.44556 -38.44490 -38.44178 -38.43911
  Beta  occ. eigenvalues --  -38.43771 -38.42778  -2.21238  -2.20552  -2.20295
  Beta  occ. eigenvalues --   -2.19957  -2.19804  -2.19753  -2.18868  -1.14983
  Beta  occ. eigenvalues --   -1.14924  -1.14843  -1.14283  -1.14231  -1.14186
  Beta  occ. eigenvalues --   -1.14051  -1.13985  -1.13943  -1.13676  -1.13619
  Beta  occ. eigenvalues --   -1.13585  -1.13489  -1.13465  -1.13454  -1.13438
  Beta  occ. eigenvalues --   -1.13426  -1.13360  -1.12566  -1.12517  -1.12470
  Beta  occ. eigenvalues --   -0.18438  -0.14111  -0.10949
  Beta virt. eigenvalues --   -0.07223  -0.06587  -0.06184  -0.03308  -0.03026
  Beta virt. eigenvalues --   -0.02731  -0.01961  -0.01445  -0.00761  -0.00602
  Beta virt. eigenvalues --   -0.00168  -0.00040   0.00145   0.00365   0.00551

 Mulliken charges and spin densities:
               1          2
     1  Na  -1.122765  -0.110873
     2  Na   0.756488   0.369112
     3  Na   0.277396  -0.012078
     4  Na  -1.421759   0.313090
     5  Na  -0.194811  -0.082127
     6  Na   0.782557   0.195956
     7  Na   0.922894   0.326919
 Sum of Mulliken charges =  -0.00000   1.00000

 Dipole moment (field-independent basis, Debye):
    X=             -0.8805    Y=             -0.7219    Z=              0.7334  Tot=              1.3544
 Quadrupole moment (field-independent basis, Debye-Ang):
   XX=            -64.1361   YY=            -69.9478   ZZ=            -67.1838
   XY=              3.0335   XZ=             -0.2384   YZ=              3.8083

 Normal termination of Gaussian 16 at Mon Nov 13 15:14:41 2023.
