 Gaussian 16, Revision B.01,
 Gaussian 16:  ES64L-G16RevB.01 20-Dec-2017

 -------------------------
 #P B3LYP/6-311+g(d) force
 -------------------------

 ------------------------------
 Gaussian input prepared by ASE
 ------------------------------
 Symbolic Z-matrix:
 Charge =  0 Multiplicity = 2

                         Standard orientation:
 ---------------------------------------------------------------------
 Center     Atomic      Atomic             Coordinates (Angstroms)
 Number     Number       Type             X           Y           Z
 ---------------------------------------------------------------------
      1         11           0        1.233927    1.526963   -0.548902
      2         11           0        1.720043    0.339575    2.168708
      3         11           0        2.717950   -0.898031   -1.517470
      4         11           0        0.861061   -2.038114    0.546671
      5         11           0       -1.473858    2.702789   -0.067921
      6         11           0       -1.207105   -0.219296   -0.657011
      7         11           0       -3.852019   -1.413886    0.075924
 ---------------------------------------------------------------------

 SCF Done:  E(UB3LYP) =  -1136.10498728     A.U. after   21 cycles

 The electronic state is 2-A.
 Alpha  occ. eigenvalues --  -38.44730 -38.44557 -38.44446 -38.43984 -38.43722
 Alpha  occ. eigenvalues --  -38.43069 -38.43004  -2.20664  -2.20488  -2.20232
 Alpha  occ. eigenvalues --   -2.19971  -2.19610  -2.19172  -2.19086  -1.14358
 Alpha  occ. eigenvalues --   -1.14327  -1.14246  -1.14181  -1.14169  -1.14087
 Alpha  occ. eigenvalues --   -1.13940  -1.13885  -1.13866  -1.13693  -1.13632
 Alpha  occ. eigenvalues --   -1.13553  -1.13382  -1.13264  -1.13238  -1.12944
 Alpha  occ. eigenvalues --   -1.12838  -1.12767  -1.12749  -1.12709  -1.12666
 Alpha  occ. eigenvalues --   -0.19442  -0.13502  -0.11964  -0.11624
 Alpha virt. eigenvalues --   -0.06501  -0.05270  -0.03481  -0.03300  -0.03065
 Alpha virt. eigenvalues --   -0.02585  -0.01858  -0.01113  -0.00542   0.00043
 Alpha virt. eigenvalues --    0.00163   0.00214   0.00495   0.00743   0.00897

  Beta  occ. eigenvalues --  -38.44626 -38.44491 -38.44458 -38.43959 -38.43727
  Beta  occ. eigenvalues --  -38.43042 -38.42991  -2.20473  -2.20366  -2.20256
  Beta  occ. eigenvalues --   -2.19933  -2.19621  -2.19130  -2.19064  -1.14234
  Beta  occ. eigenvalues --   -1.14185  -1.14117  -1.14097  -1.14085  -1.13995
  Beta  occ. eigenvalues --   -1.13955  -1.13900  -1.13882  -1.13673  -1.13546
  Beta  occ. eigenvalues --   -1.13533  -1.13387  -1.13272  -1.13238  -1.12926
  Beta  occ. eigenvalues --   -1.12771  -1.12737  -1.12728  -1.12675  -1.12650
  Beta  occ. eigenvalues --   -0.18652  -0.13344  -0.11840
  Beta virt. eigenvalues --   -0.07385  -0.06250  -0.05098  -0.03469  -0.02787
  Beta virt. eigenvalues --   -0.02380  -0.01846  -0.01406  -0.01021  -0.00200
  Beta virt. eigenvalues --    0.00042   0.00235   0.00260   0.00653   0.00764

 Mulliken charges and spin densities:
               1          2
     1  Na   0.952899   0.088006
     2  Na  -0.085183   0.360025
     3  Na   0.625779   0.203316
     4  Na  -0.099728   0.157619
     5  Na   0.223013  -0.100728
     6  Na  -1.808112   0.393891
     7  Na   0.191332  -0.102129
 Sum of Mulliken charges =  -0.00000   1.00000

 Dipole moment (field-independent basis, Debye):
    X=              0.1039    Y=              0.0388    Z=              0.5533  Tot=              0.5643
 Quadrupole moment (field-independent basis, Debye-Ang):
   XX=            -54.3426   YY=            -68.5410   ZZ=            -69.7317
   XY=             -1.9894   XZ=             -2.6662   YZ=              1.1241

 Normal termination of Gaussian 16 at Mon Nov 13 18:28:47 2023.
