 Gaussian 16, Revision B.01,
 Gaussian 16:  ES64L-G16RevB.01 20-Dec-2017

 -------------------------
 #P B3LYP/6-311+g(d) force
 -------------------------

 ------------------------------
 Gaussian input prepared by ASE
 ------------------------------
 Symbolic Z-matrix:
 Charge =  0 Multiplicity = 2

                         Standard orientation:
 ---------------------------------------------------------------------
 Center     Atomic      Atomic             Coordinates (Angstroms)
 Number     Number       Type             X           Y           Z
 ---------------------------------------------------------------------
      1         11           0        0.831042    1.486419   -1.468223
      2         11           0        0.215215   -0.079934    2.396200
      3         11           0        2.473302   -0.176423    0.413992
      4         11           0        0.633231   -1.498930   -1.551313
      5         11           0       -1.292518   -2.040175    0.685839
      6         11           0       -1.847844    0.157744   -1.277102
      7         11           0       -1.012428    2.151299    0.800607
 ---------------------------------------------------------------------

 SCF Done:  E(UB3LYP) =  -1136.10146848     A.U. after   33 cycles

 The electronic state is 2-A.
 Alpha  occ. eigenvalues --  -38.45189 -38.45158 -38.43988 -38.43962 -38.43040
 Alpha  occ. eigenvalues --  -38.42866 -38.42856  -2.21189  -2.21156  -2.20080
 Alpha  occ. eigenvalues --   -2.20049  -2.19110  -2.18857  -2.18845  -1.14910
 Alpha  occ. eigenvalues --   -1.14878  -1.14819  -1.14799  -1.14786  -1.14765
 Alpha  occ. eigenvalues --   -1.13889  -1.13763  -1.13726  -1.13719  -1.13665
 Alpha  occ. eigenvalues --   -1.13595  -1.12801  -1.12795  -1.12699  -1.12630
 Alpha  occ. eigenvalues --   -1.12552  -1.12523  -1.12500  -1.12499  -1.12360
 Alpha  occ. eigenvalues --   -0.20747  -0.13973  -0.12591  -0.12434
 Alpha virt. eigenvalues --   -0.04892  -0.04457  -0.04176  -0.04021  -0.03754
 Alpha virt. eigenvalues --   -0.03450  -0.00743  -0.00433  -0.00344   0.00370
 Alpha virt. eigenvalues --    0.00777   0.00910   0.00970   0.01009   0.01068

  Beta  occ. eigenvalues --  -38.45105 -38.45075 -38.43939 -38.43914 -38.43030
  Beta  occ. eigenvalues --  -38.42861 -38.42854  -2.21038  -2.21008  -2.19994
  Beta  occ. eigenvalues --   -2.19964  -2.19099  -2.18853  -2.18842  -1.14795
  Beta  occ. eigenvalues --   -1.14764  -1.14711  -1.14696  -1.14680  -1.14664
  Beta  occ. eigenvalues --   -1.13843  -1.13675  -1.13664  -1.13653  -1.13609
  Beta  occ. eigenvalues --   -1.13523  -1.12798  -1.12726  -1.12703  -1.12632
  Beta  occ. eigenvalues --   -1.12526  -1.12516  -1.12503  -1.12474  -1.12362
  Beta  occ. eigenvalues --   -0.19785  -0.12329  -0.12259
  Beta virt. eigenvalues --   -0.09560  -0.04265  -0.03809  -0.03772  -0.03683
  Beta virt. eigenvalues --   -0.03138  -0.03112  -0.00419  -0.00395  -0.00340
  Beta virt. eigenvalues --    0.00417   0.00897   0.00973   0.01006   0.01188

 Mulliken charges and spin densities:
               1          2
     1  Na   0.037542   0.337429
     2  Na  -0.226047  -0.018995
     3  Na  -0.164392   0.064434
     4  Na   0.044635   0.343329
     5  Na   0.190377   0.307324
     6  Na  -0.081382  -0.346285
     7  Na   0.199266   0.312764
 Sum of Mulliken charges =  -0.00000   1.00000

 Dipole moment (field-independent basis, Debye):
    X=             -0.2871    Y=              0.0156    Z=              0.1325  Tot=              0.3166
 Quadrupole moment (field-independent basis, Debye-Ang):
   XX=            -70.9558   YY=            -56.6917   ZZ=            -72.0493
   XY=              0.9185   XZ=             -0.1551   YZ=              0.5033

 Normal termination of Gaussian 16 at Mon Nov 13 19:35:26 2023.
