 Gaussian 16, Revision B.01,
 Gaussian 16:  ES64L-G16RevB.01 20-Dec-2017

 -------------------------
 #P B3LYP/6-311+g(d) force
 -------------------------

 ------------------------------
 Gaussian input prepared by ASE
 ------------------------------
 Symbolic Z-matrix:
 Charge =  0 Multiplicity = 2

                         Standard orientation:
 ---------------------------------------------------------------------
 Center     Atomic      Atomic             Coordinates (Angstroms)
 Number     Number       Type             X           Y           Z
 ---------------------------------------------------------------------
      1         11           0       -0.652087   -0.819544   -1.008228
      2         11           0        0.626282   -0.693776    1.706997
      3         11           0        2.123133   -1.881720   -0.596348
      4         11           0        2.716059    0.927076    0.281456
      5         11           0        0.318343    2.019174   -1.169997
      6         11           0       -1.593207    1.193893    0.991782
      7         11           0       -3.538522   -0.745103   -0.205661
 ---------------------------------------------------------------------

 SCF Done:  E(UB3LYP) =  -1136.09937454     A.U. after   22 cycles

 The electronic state is 2-A.
 Alpha  occ. eigenvalues --  -38.45194 -38.44784 -38.43861 -38.43660 -38.43463
 Alpha  occ. eigenvalues --  -38.43433 -38.42624  -2.21068  -2.20765  -2.19957
 Alpha  occ. eigenvalues --   -2.19743  -2.19640  -2.19421  -2.18624  -1.14776
 Alpha  occ. eigenvalues --   -1.14750  -1.14679  -1.14483  -1.14440  -1.14402
 Alpha  occ. eigenvalues --   -1.13765  -1.13662  -1.13555  -1.13511  -1.13367
 Alpha  occ. eigenvalues --   -1.13356  -1.13329  -1.13268  -1.13254  -1.13068
 Alpha  occ. eigenvalues --   -1.13040  -1.13022  -1.12313  -1.12263  -1.12232
 Alpha  occ. eigenvalues --   -0.20266  -0.14447  -0.11637  -0.11481
 Alpha virt. eigenvalues --   -0.06808  -0.04704  -0.03895  -0.03343  -0.02469
 Alpha virt. eigenvalues --   -0.02406  -0.02248  -0.00758  -0.00183   0.00163
 Alpha virt. eigenvalues --    0.00238   0.00440   0.00638   0.00818   0.00929

  Beta  occ. eigenvalues --  -38.45195 -38.44775 -38.43782 -38.43624 -38.43418
  Beta  occ. eigenvalues --  -38.43413 -38.42595  -2.21071  -2.20753  -2.19815
  Beta  occ. eigenvalues --   -2.19683  -2.19556  -2.19396  -2.18574  -1.14779
  Beta  occ. eigenvalues --   -1.14744  -1.14677  -1.14473  -1.14405  -1.14394
  Beta  occ. eigenvalues --   -1.13683  -1.13565  -1.13464  -1.13443  -1.13316
  Beta  occ. eigenvalues --   -1.13288  -1.13271  -1.13204  -1.13170  -1.13052
  Beta  occ. eigenvalues --   -1.13017  -1.12976  -1.12280  -1.12230  -1.12177
  Beta  occ. eigenvalues --   -0.19463  -0.14232  -0.11436
  Beta virt. eigenvalues --   -0.07307  -0.06683  -0.04574  -0.03204  -0.03163
  Beta virt. eigenvalues --   -0.02350  -0.01850  -0.01237  -0.00652   0.00030
  Beta virt. eigenvalues --    0.00192   0.00255   0.00464   0.00803   0.00865

 Mulliken charges and spin densities:
               1          2
     1  Na  -0.748548   0.363992
     2  Na  -0.220277   0.366459
     3  Na   0.758184   0.045344
     4  Na  -0.132620   0.101470
     5  Na   0.022771   0.094561
     6  Na   0.543507   0.034578
     7  Na  -0.223017  -0.006405
 Sum of Mulliken charges =  -0.00000   1.00000

 Dipole moment (field-independent basis, Debye):
    X=             -0.4500    Y=              0.0236    Z=              0.0622  Tot=              0.4549
 Quadrupole moment (field-independent basis, Debye-Ang):
   XX=            -47.8916   YY=            -74.4991   ZZ=            -70.6853
   XY=              1.2674   XZ=             -0.3005   YZ=              1.4982

 Normal termination of Gaussian 16 at Mon Nov 13 16:45:54 2023.
