 Gaussian 16, Revision B.01,
 Gaussian 16:  ES64L-G16RevB.01 20-Dec-2017

 -------------------------
 #P B3LYP/6-311+g(d) force
 -------------------------

 ------------------------------
 Gaussian input prepared by ASE
 ------------------------------
 Symbolic Z-matrix:
 Charge =  0 Multiplicity = 2

                         Standard orientation:
 ---------------------------------------------------------------------
 Center     Atomic      Atomic             Coordinates (Angstroms)
 Number     Number       Type             X           Y           Z
 ---------------------------------------------------------------------
      1         11           0       -0.672071   -1.635740    1.729979
      2         11           0       -2.235703   -1.682235   -0.829070
      3         11           0        3.639265   -1.521201   -0.293800
      4         11           0        0.721935   -1.162457   -0.871657
      5         11           0       -2.791308    1.243930   -0.448542
      6         11           0       -0.079029    1.172568    0.838798
      7         11           0        1.416911    3.585135   -0.125708
 ---------------------------------------------------------------------

 SCF Done:  E(UB3LYP) =  -1136.09883089     A.U. after   24 cycles

 The electronic state is 2-A.
 Alpha  occ. eigenvalues --  -38.44850 -38.44605 -38.44540 -38.44155 -38.44020
 Alpha  occ. eigenvalues --  -38.43471 -38.43039  -2.20738  -2.20390  -2.20339
 Alpha  occ. eigenvalues --   -2.20156  -2.20042  -2.19533  -2.19121  -1.14445
 Alpha  occ. eigenvalues --   -1.14415  -1.14359  -1.14097  -1.14048  -1.14037
 Alpha  occ. eigenvalues --   -1.14020  -1.13975  -1.13968  -1.13929  -1.13838
 Alpha  occ. eigenvalues --   -1.13781  -1.13756  -1.13654  -1.13581  -1.13260
 Alpha  occ. eigenvalues --   -1.13157  -1.13142  -1.12779  -1.12761  -1.12751
 Alpha  occ. eigenvalues --   -0.19281  -0.13039  -0.12589  -0.10796
 Alpha virt. eigenvalues --   -0.06758  -0.05834  -0.03719  -0.03097  -0.02687
 Alpha virt. eigenvalues --   -0.02179  -0.01891  -0.01609  -0.00418  -0.00300
 Alpha virt. eigenvalues --   -0.00007   0.00170   0.00427   0.00606   0.00780

  Beta  occ. eigenvalues --  -38.44822 -38.44611 -38.44519 -38.44126 -38.43927
  Beta  occ. eigenvalues --  -38.43455 -38.43005  -2.20688  -2.20400  -2.20301
  Beta  occ. eigenvalues --   -2.20106  -2.19872  -2.19508  -2.19064  -1.14417
  Beta  occ. eigenvalues --   -1.14361  -1.14322  -1.14102  -1.14042  -1.14028
  Beta  occ. eigenvalues --   -1.14021  -1.13948  -1.13942  -1.13880  -1.13780
  Beta  occ. eigenvalues --   -1.13735  -1.13648  -1.13534  -1.13479  -1.13225
  Beta  occ. eigenvalues --   -1.13142  -1.13104  -1.12748  -1.12724  -1.12674
  Beta  occ. eigenvalues --   -0.18593  -0.12660  -0.12451
  Beta virt. eigenvalues --   -0.07043  -0.06418  -0.05566  -0.03591  -0.02536
  Beta virt. eigenvalues --   -0.02334  -0.01866  -0.01626  -0.00963  -0.00302
  Beta virt. eigenvalues --   -0.00058   0.00085   0.00269   0.00479   0.00671

 Mulliken charges and spin densities:
               1          2
     1  Na   0.853610  -0.205681
     2  Na   0.835238   0.469010
     3  Na   0.462976   0.035671
     4  Na  -1.517119   0.243454
     5  Na  -0.090306  -0.010611
     6  Na  -0.492118   0.473141
     7  Na  -0.052280  -0.004985
 Sum of Mulliken charges =  -0.00000   1.00000

 Dipole moment (field-independent basis, Debye):
    X=              0.1271    Y=              0.2139    Z=              0.1924  Tot=              0.3145
 Quadrupole moment (field-independent basis, Debye-Ang):
   XX=            -56.3540   YY=            -62.0302   ZZ=            -73.6055
   XY=              2.5498   XZ=              0.5357   YZ=             -3.0297

 Normal termination of Gaussian 16 at Mon Nov 13 18:43:40 2023.
