 Gaussian 16, Revision B.01,
 Gaussian 16:  ES64L-G16RevB.01 20-Dec-2017

 -------------------------
 #P B3LYP/6-311+g(d) force
 -------------------------

 ------------------------------
 Gaussian input prepared by ASE
 ------------------------------
 Symbolic Z-matrix:
 Charge =  0 Multiplicity = 2

                         Standard orientation:
 ---------------------------------------------------------------------
 Center     Atomic      Atomic             Coordinates (Angstroms)
 Number     Number       Type             X           Y           Z
 ---------------------------------------------------------------------
      1         11           0        1.644898   -2.137744   -0.217016
      2         11           0       -3.061045    1.493537   -0.047018
      3         11           0       -3.075556   -1.502373   -0.004154
      4         11           0       -0.466496   -0.017474   -0.061720
      5         11           0        1.775689    0.243713   -2.038245
      6         11           0        1.579005    2.149590    0.268460
      7         11           0        1.603505   -0.229250    2.099693
 ---------------------------------------------------------------------

 SCF Done:  E(UB3LYP) =  -1136.09923813     A.U. after   26 cycles

 The electronic state is 2-A.
 Alpha  occ. eigenvalues --  -38.44614 -38.44604 -38.44445 -38.44444 -38.42956
 Alpha  occ. eigenvalues --  -38.42779 -38.42746  -2.20497  -2.20476  -2.20457
 Alpha  occ. eigenvalues --   -2.20454  -2.19254  -2.18769  -2.18736  -1.14312
 Alpha  occ. eigenvalues --   -1.14185  -1.14165  -1.14163  -1.14157  -1.14139
 Alpha  occ. eigenvalues --   -1.14104  -1.14077  -1.14073  -1.14072  -1.14066
 Alpha  occ. eigenvalues --   -1.14008  -1.12973  -1.12965  -1.12900  -1.12446
 Alpha  occ. eigenvalues --   -1.12434  -1.12415  -1.12400  -1.12372  -1.12337
 Alpha  occ. eigenvalues --   -0.19526  -0.14346  -0.11840  -0.11358
 Alpha virt. eigenvalues --   -0.05820  -0.05387  -0.03384  -0.03326  -0.03058
 Alpha virt. eigenvalues --   -0.02747  -0.01701  -0.00906  -0.00487   0.00174
 Alpha virt. eigenvalues --    0.00336   0.00359   0.00683   0.00853   0.00918

  Beta  occ. eigenvalues --  -38.44618 -38.44608 -38.44348 -38.44344 -38.42937
  Beta  occ. eigenvalues --  -38.42763 -38.42728  -2.20506  -2.20484  -2.20279
  Beta  occ. eigenvalues --   -2.20272  -2.19226  -2.18745  -2.18711  -1.14316
  Beta  occ. eigenvalues --   -1.14182  -1.14164  -1.14141  -1.14106  -1.14062
  Beta  occ. eigenvalues --   -1.14042  -1.14016  -1.13955  -1.13946  -1.13940
  Beta  occ. eigenvalues --   -1.13933  -1.12967  -1.12899  -1.12862  -1.12437
  Beta  occ. eigenvalues --   -1.12406  -1.12367  -1.12359  -1.12333  -1.12324
  Beta  occ. eigenvalues --   -0.18729  -0.14197  -0.11072
  Beta virt. eigenvalues --   -0.07605  -0.05535  -0.05400  -0.03199  -0.02947
  Beta virt. eigenvalues --   -0.02210  -0.01849  -0.01544  -0.00908  -0.00092
  Beta virt. eigenvalues --    0.00189   0.00349   0.00405   0.00831   0.00941

 Mulliken charges and spin densities:
               1          2
     1  Na   0.116645  -0.006172
     2  Na   0.738665  -0.107175
     3  Na  -0.453753  -0.366060
     4  Na  -2.440802   1.031133
     5  Na   0.383883   0.098320
     6  Na   1.766763   0.260331
     7  Na  -0.111401   0.089623
 Sum of Mulliken charges =  -0.00000   1.00000

 Dipole moment (field-independent basis, Debye):
    X=             -1.0907    Y=              0.0021    Z=              0.0305  Tot=              1.0911
 Quadrupole moment (field-independent basis, Debye-Ang):
   XX=            -54.9937   YY=            -70.4201   ZZ=            -67.3832
   XY=              0.0083   XZ=             -0.2298   YZ=              0.2410

 Normal termination of Gaussian 16 at Mon Nov 13 20:14:33 2023.
