 Gaussian 16, Revision B.01,
 Gaussian 16:  ES64L-G16RevB.01 20-Dec-2017

 -------------------------
 #P B3LYP/6-311+g(d) force
 -------------------------

 ------------------------------
 Gaussian input prepared by ASE
 ------------------------------
 Symbolic Z-matrix:
 Charge =  0 Multiplicity = 2

                         Standard orientation:
 ---------------------------------------------------------------------
 Center     Atomic      Atomic             Coordinates (Angstroms)
 Number     Number       Type             X           Y           Z
 ---------------------------------------------------------------------
      1         11           0        0.057448   -0.000831   -1.375569
      2         11           0       -0.769687   -2.344291    0.115808
      3         11           0        2.192905   -1.532166   -0.116150
      4         11           0        2.187446    1.536076   -0.116009
      5         11           0       -0.198712    0.002171    1.794618
      6         11           0       -0.774270    2.342671    0.113194
      7         11           0       -2.695130   -0.003629   -0.415892
 ---------------------------------------------------------------------

 SCF Done:  E(UB3LYP) =  -1136.10741269     A.U. after   20 cycles

 The electronic state is 2-A.
 Alpha  occ. eigenvalues --  -38.43614 -38.43472 -38.43471 -38.43430 -38.43261
 Alpha  occ. eigenvalues --  -38.43260 -38.43248  -2.19645  -2.19601  -2.19569
 Alpha  occ. eigenvalues --   -2.19486  -2.19477  -2.19333  -2.19326  -1.13574
 Alpha  occ. eigenvalues --   -1.13517  -1.13478  -1.13324  -1.13306  -1.13305
 Alpha  occ. eigenvalues --   -1.13271  -1.13219  -1.13182  -1.13152  -1.13122
 Alpha  occ. eigenvalues --   -1.13100  -1.13098  -1.13042  -1.13038  -1.12961
 Alpha  occ. eigenvalues --   -1.12953  -1.12918  -1.12900  -1.12896  -1.12879
 Alpha  occ. eigenvalues --   -0.20887  -0.13618  -0.13182  -0.11376
 Alpha virt. eigenvalues --   -0.05046  -0.04689  -0.04454  -0.03209  -0.03029
 Alpha virt. eigenvalues --   -0.02340  -0.01163  -0.00813   0.00012   0.00348
 Alpha virt. eigenvalues --    0.00469   0.00498   0.00973   0.01070   0.01074

  Beta  occ. eigenvalues --  -38.43598 -38.43464 -38.43463 -38.43335 -38.43247
  Beta  occ. eigenvalues --  -38.43247 -38.43178  -2.19616  -2.19501  -2.19467
  Beta  occ. eigenvalues --   -2.19457  -2.19398  -2.19315  -2.19305  -1.13525
  Beta  occ. eigenvalues --   -1.13462  -1.13425  -1.13297  -1.13255  -1.13234
  Beta  occ. eigenvalues --   -1.13213  -1.13187  -1.13105  -1.13104  -1.13093
  Beta  occ. eigenvalues --   -1.13059  -1.13034  -1.13011  -1.12976  -1.12928
  Beta  occ. eigenvalues --   -1.12891  -1.12882  -1.12878  -1.12872  -1.12828
  Beta  occ. eigenvalues --   -0.20118  -0.13281  -0.12843
  Beta virt. eigenvalues --   -0.07268  -0.05043  -0.04666  -0.04463  -0.02339
  Beta virt. eigenvalues --   -0.02125  -0.01260  -0.01072  -0.00763   0.00143
  Beta virt. eigenvalues --    0.00378   0.00429   0.00454   0.01010   0.01064

 Mulliken charges and spin densities:
               1          2
     1  Na  -1.449857   0.151846
     2  Na   0.614648   0.105651
     3  Na   0.293734   0.021104
     4  Na   0.295399   0.021423
     5  Na  -0.703651   0.559555
     6  Na   0.617190   0.105591
     7  Na   0.332537   0.034830
 Sum of Mulliken charges =  -0.00000   1.00000

 Dipole moment (field-independent basis, Debye):
    X=              0.0375    Y=             -0.0016    Z=              0.3190  Tot=              0.3212
 Quadrupole moment (field-independent basis, Debye-Ang):
   XX=            -58.4566   YY=            -63.7502   ZZ=            -72.5081
   XY=             -0.0024   XZ=              0.6591   YZ=             -0.0059

 Normal termination of Gaussian 16 at Mon Nov 13 19:06:58 2023.
