 Gaussian 16, Revision B.01,
 Gaussian 16:  ES64L-G16RevB.01 20-Dec-2017

 -------------------------
 #P B3LYP/6-311+g(d) force
 -------------------------

 ------------------------------
 Gaussian input prepared by ASE
 ------------------------------
 Symbolic Z-matrix:
 Charge =  0 Multiplicity = 2

                         Standard orientation:
 ---------------------------------------------------------------------
 Center     Atomic      Atomic             Coordinates (Angstroms)
 Number     Number       Type             X           Y           Z
 ---------------------------------------------------------------------
      1         11           0       -1.351298   -0.036774    1.497706
      2         11           0        0.155187    2.122622    0.056295
      3         11           0        3.094608    1.519178   -0.031685
      4         11           0        3.129689   -1.482238    0.005214
      5         11           0        0.197864   -2.128698    0.003135
      6         11           0       -1.301458    0.001133   -1.490970
      7         11           0       -3.924591    0.004776   -0.039696
 ---------------------------------------------------------------------

 SCF Done:  E(UB3LYP) =  -1136.09184844     A.U. after   30 cycles

 The electronic state is 2-A.
 Alpha  occ. eigenvalues --  -38.46078 -38.44935 -38.44850 -38.44075 -38.44023
 Alpha  occ. eigenvalues --  -38.42965 -38.42961  -2.22130  -2.20950  -2.20851
 Alpha  occ. eigenvalues --   -2.19964  -2.19911  -2.18947  -2.18941  -1.15856
 Alpha  occ. eigenvalues --   -1.15798  -1.15776  -1.14701  -1.14647  -1.14574
 Alpha  occ. eigenvalues --   -1.14506  -1.14437  -1.14424  -1.13753  -1.13642
 Alpha  occ. eigenvalues --   -1.13602  -1.13584  -1.13543  -1.13482  -1.12650
 Alpha  occ. eigenvalues --   -1.12644  -1.12601  -1.12597  -1.12551  -1.12546
 Alpha  occ. eigenvalues --   -0.19676  -0.14788  -0.11868  -0.10645
 Alpha virt. eigenvalues --   -0.07954  -0.05335  -0.04006  -0.03486  -0.03248
 Alpha virt. eigenvalues --   -0.02018  -0.01977  -0.01086  -0.00560  -0.00315
 Alpha virt. eigenvalues --    0.00017   0.00030   0.00365   0.00710   0.00851

  Beta  occ. eigenvalues --  -38.46058 -38.44869 -38.44797 -38.44046 -38.43996
  Beta  occ. eigenvalues --  -38.42947 -38.42942  -2.22101  -2.20859  -2.20729
  Beta  occ. eigenvalues --   -2.19914  -2.19863  -2.18917  -2.18910  -1.15819
  Beta  occ. eigenvalues --   -1.15761  -1.15746  -1.14618  -1.14583  -1.14501
  Beta  occ. eigenvalues --   -1.14412  -1.14352  -1.14345  -1.13707  -1.13604
  Beta  occ. eigenvalues --   -1.13568  -1.13546  -1.13511  -1.13443  -1.12631
  Beta  occ. eigenvalues --   -1.12625  -1.12557  -1.12553  -1.12538  -1.12533
  Beta  occ. eigenvalues --   -0.19076  -0.14124  -0.11809
  Beta virt. eigenvalues --   -0.07705  -0.06863  -0.05166  -0.03659  -0.03128
  Beta virt. eigenvalues --   -0.02750  -0.01832  -0.01658  -0.00762  -0.00190
  Beta virt. eigenvalues --   -0.00025   0.00080   0.00237   0.00604   0.00782

 Mulliken charges and spin densities:
               1          2
     1  Na  -0.241971  -0.006283
     2  Na  -0.004466   0.106344
     3  Na  -0.049953   0.115539
     4  Na  -0.024204   0.080127
     5  Na  -0.025042   0.153296
     6  Na  -0.247290   0.279795
     7  Na   0.592926   0.271182
 Sum of Mulliken charges =  -0.00000   1.00000

 Dipole moment (field-independent basis, Debye):
    X=             -0.9556    Y=             -0.0153    Z=              0.7127  Tot=              1.1922
 Quadrupole moment (field-independent basis, Debye-Ang):
   XX=            -63.5869   YY=            -76.6994   ZZ=            -64.4605
   XY=             -0.0418   XZ=             -3.2246   YZ=             -0.1389

 Normal termination of Gaussian 16 at Mon Nov 13 16:04:41 2023.
