 Gaussian 16, Revision B.01,
 Gaussian 16:  ES64L-G16RevB.01 20-Dec-2017

 -------------------------
 #P B3LYP/6-311+g(d) force
 -------------------------

 ------------------------------
 Gaussian input prepared by ASE
 ------------------------------
 Symbolic Z-matrix:
 Charge =  0 Multiplicity = 2

                         Standard orientation:
 ---------------------------------------------------------------------
 Center     Atomic      Atomic             Coordinates (Angstroms)
 Number     Number       Type             X           Y           Z
 ---------------------------------------------------------------------
      1         11           0       -1.333240   -1.392279   -0.886190
      2         11           0       -0.012827   -1.981912    1.733460
      3         11           0        1.623786   -1.889846   -0.780228
      4         11           0        2.940576    0.808102   -0.796772
      5         11           0        1.046680    2.696314    0.563971
      6         11           0       -1.147204    0.748349    1.206316
      7         11           0       -3.117772    1.011272   -1.040556
 ---------------------------------------------------------------------

 SCF Done:  E(UB3LYP) =  -1136.10764871     A.U. after   19 cycles

 The electronic state is 2-A.
 Alpha  occ. eigenvalues --  -38.44253 -38.44154 -38.44026 -38.43865 -38.43844
 Alpha  occ. eigenvalues --  -38.43734 -38.43541  -2.20156  -2.20155  -2.19919
 Alpha  occ. eigenvalues --   -2.19907  -2.19740  -2.19713  -2.19621  -1.13951
 Alpha  occ. eigenvalues --   -1.13917  -1.13843  -1.13816  -1.13777  -1.13765
 Alpha  occ. eigenvalues --   -1.13676  -1.13623  -1.13617  -1.13598  -1.13538
 Alpha  occ. eigenvalues --   -1.13505  -1.13502  -1.13362  -1.13344  -1.13337
 Alpha  occ. eigenvalues --   -1.13324  -1.13292  -1.13257  -1.13240  -1.13191
 Alpha  occ. eigenvalues --   -0.19278  -0.13691  -0.12894  -0.11541
 Alpha virt. eigenvalues --   -0.05615  -0.05062  -0.04705  -0.03739  -0.03028
 Alpha virt. eigenvalues --   -0.02526  -0.01265  -0.00688  -0.00267  -0.00023
 Alpha virt. eigenvalues --    0.00208   0.00375   0.00694   0.00825   0.00907

  Beta  occ. eigenvalues --  -38.44216 -38.44090 -38.44011 -38.43855 -38.43815
  Beta  occ. eigenvalues --  -38.43712 -38.43495  -2.20088  -2.20038  -2.19881
  Beta  occ. eigenvalues --   -2.19871  -2.19723  -2.19674  -2.19543  -1.13888
  Beta  occ. eigenvalues --   -1.13865  -1.13773  -1.13744  -1.13719  -1.13693
  Beta  occ. eigenvalues --   -1.13649  -1.13603  -1.13588  -1.13561  -1.13517
  Beta  occ. eigenvalues --   -1.13474  -1.13441  -1.13344  -1.13327  -1.13304
  Beta  occ. eigenvalues --   -1.13298  -1.13258  -1.13211  -1.13152  -1.13143
  Beta  occ. eigenvalues --   -0.18597  -0.13255  -0.12780
  Beta virt. eigenvalues --   -0.07668  -0.05218  -0.04865  -0.04511  -0.03214
  Beta virt. eigenvalues --   -0.02566  -0.01659  -0.01091  -0.00625  -0.00030
  Beta virt. eigenvalues --    0.00088   0.00304   0.00434   0.00799   0.00860

 Mulliken charges and spin densities:
               1          2
     1  Na  -0.642231   0.383550
     2  Na   0.288071   0.142488
     3  Na   0.251681   0.191119
     4  Na  -0.338951   0.016375
     5  Na   0.053260   0.082164
     6  Na  -0.004380   0.132258
     7  Na   0.392549   0.052046
 Sum of Mulliken charges =  -0.00000   1.00000

 Dipole moment (field-independent basis, Debye):
    X=             -0.2045    Y=              0.0071    Z=             -0.0940  Tot=              0.2252
 Quadrupole moment (field-independent basis, Debye-Ang):
   XX=            -62.9311   YY=            -66.0056   ZZ=            -68.6986
   XY=             -2.2607   XZ=              1.0739   YZ=             -1.6462

 Normal termination of Gaussian 16 at Mon Nov 13 16:03:52 2023.
