 Gaussian 16, Revision B.01,
 Gaussian 16:  ES64L-G16RevB.01 20-Dec-2017

 -------------------------
 #P B3LYP/6-311+g(d) force
 -------------------------

 ------------------------------
 Gaussian input prepared by ASE
 ------------------------------
 Symbolic Z-matrix:
 Charge =  0 Multiplicity = 2

                         Standard orientation:
 ---------------------------------------------------------------------
 Center     Atomic      Atomic             Coordinates (Angstroms)
 Number     Number       Type             X           Y           Z
 ---------------------------------------------------------------------
      1         11           0        0.716399   -2.396702   -1.378196
      2         11           0        4.196113   -1.422209    0.854795
      3         11           0        3.016094    2.611451    0.074556
      4         11           0        1.604015   -0.032874    0.247116
      5         11           0       -0.978432    1.372417   -0.368705
      6         11           0       -3.817961    0.629813   -0.958085
      7         11           0       -4.736228   -0.761896    1.528518
 ---------------------------------------------------------------------

 SCF Done:  E(UB3LYP) =  -1136.09758963     A.U. after   25 cycles

 The electronic state is 2-A.
 Alpha  occ. eigenvalues --  -38.45218 -38.44775 -38.44742 -38.44150 -38.43811
 Alpha  occ. eigenvalues --  -38.43807 -38.42831  -2.21039  -2.20617  -2.20582
 Alpha  occ. eigenvalues --   -2.19973  -2.19704  -2.19617  -2.18933  -1.14741
 Alpha  occ. eigenvalues --   -1.14670  -1.14664  -1.14334  -1.14294  -1.14252
 Alpha  occ. eigenvalues --   -1.14245  -1.14234  -1.14176  -1.13693  -1.13617
 Alpha  occ. eigenvalues --   -1.13556  -1.13449  -1.13344  -1.13342  -1.13287
 Alpha  occ. eigenvalues --   -1.13276  -1.13223  -1.12674  -1.12588  -1.12513
 Alpha  occ. eigenvalues --   -0.17175  -0.14748  -0.11439  -0.10909
 Alpha virt. eigenvalues --   -0.06843  -0.05381  -0.03724  -0.03566  -0.03243
 Alpha virt. eigenvalues --   -0.02527  -0.01798  -0.01330  -0.01169  -0.00301
 Alpha virt. eigenvalues --   -0.00071  -0.00033   0.00229   0.00407   0.00522

  Beta  occ. eigenvalues --  -38.45153 -38.44745 -38.44743 -38.44089 -38.43793
  Beta  occ. eigenvalues --  -38.43772 -38.42814  -2.20918  -2.20628  -2.20523
  Beta  occ. eigenvalues --   -2.19862  -2.19634  -2.19593  -2.18911  -1.14665
  Beta  occ. eigenvalues --   -1.14587  -1.14581  -1.14325  -1.14257  -1.14254
  Beta  occ. eigenvalues --   -1.14235  -1.14195  -1.14130  -1.13613  -1.13543
  Beta  occ. eigenvalues --   -1.13478  -1.13405  -1.13327  -1.13284  -1.13260
  Beta  occ. eigenvalues --   -1.13247  -1.13199  -1.12586  -1.12573  -1.12514
  Beta  occ. eigenvalues --   -0.16442  -0.14164  -0.10801
  Beta virt. eigenvalues --   -0.07968  -0.06236  -0.05091  -0.03458  -0.03313
  Beta virt. eigenvalues --   -0.02829  -0.02302  -0.01392  -0.01219  -0.00634
  Beta virt. eigenvalues --   -0.00093  -0.00006   0.00065   0.00302   0.00522

 Mulliken charges and spin densities:
               1          2
     1  Na   0.618648   0.283464
     2  Na   0.658492   0.166982
     3  Na   0.372183   0.306619
     4  Na  -2.157459   0.045464
     5  Na  -0.839822   0.033593
     6  Na   1.197314  -0.139131
     7  Na   0.150645   0.303009
 Sum of Mulliken charges =  -0.00000   1.00000

 Dipole moment (field-independent basis, Debye):
    X=             -0.6612    Y=             -0.5365    Z=              0.1859  Tot=              0.8715
 Quadrupole moment (field-independent basis, Debye-Ang):
   XX=            -55.3844   YY=            -72.3555   ZZ=            -64.5998
   XY=              2.6755   XZ=              1.2098   YZ=             -2.5633

 Normal termination of Gaussian 16 at Mon Nov 13 15:00:13 2023.
