 Gaussian 16, Revision B.01,
 Gaussian 16:  ES64L-G16RevB.01 20-Dec-2017

 -------------------------
 #P B3LYP/6-311+g(d) force
 -------------------------

 ------------------------------
 Gaussian input prepared by ASE
 ------------------------------
 Symbolic Z-matrix:
 Charge =  0 Multiplicity = 2

                         Standard orientation:
 ---------------------------------------------------------------------
 Center     Atomic      Atomic             Coordinates (Angstroms)
 Number     Number       Type             X           Y           Z
 ---------------------------------------------------------------------
      1         11           0        0.043909    0.416038   -1.752606
      2         11           0        1.786957   -1.893933   -0.935816
      3         11           0        2.108094    1.919700   -0.165062
      4         11           0        1.692089   -0.416056    1.675251
      5         11           0       -1.296957   -0.529449    1.941885
      6         11           0       -2.317626   -1.169556   -0.800813
      7         11           0       -2.016466    1.673255    0.037161
 ---------------------------------------------------------------------

 SCF Done:  E(UB3LYP) =  -1136.10821848     A.U. after   23 cycles

 The electronic state is 2-A.
 Alpha  occ. eigenvalues --  -38.45042 -38.44579 -38.44535 -38.44395 -38.42973
 Alpha  occ. eigenvalues --  -38.42758 -38.42463  -2.20959  -2.20572  -2.20450
 Alpha  occ. eigenvalues --   -2.20390  -2.18963  -2.18744  -2.18553  -1.14656
 Alpha  occ. eigenvalues --   -1.14620  -1.14545  -1.14351  -1.14227  -1.14210
 Alpha  occ. eigenvalues --   -1.14149  -1.14119  -1.14071  -1.14047  -1.14028
 Alpha  occ. eigenvalues --   -1.13968  -1.12684  -1.12642  -1.12607  -1.12417
 Alpha  occ. eigenvalues --   -1.12403  -1.12334  -1.12256  -1.12217  -1.12184
 Alpha  occ. eigenvalues --   -0.19891  -0.13939  -0.12439  -0.11531
 Alpha virt. eigenvalues --   -0.05419  -0.05159  -0.04323  -0.03621  -0.03083
 Alpha virt. eigenvalues --   -0.02899  -0.01131  -0.00880  -0.00144   0.00350
 Alpha virt. eigenvalues --    0.00506   0.00531   0.00717   0.00876   0.00904

  Beta  occ. eigenvalues --  -38.44972 -38.44552 -38.44487 -38.44367 -38.42961
  Beta  occ. eigenvalues --  -38.42751 -38.42439  -2.20832  -2.20524  -2.20363
  Beta  occ. eigenvalues --   -2.20338  -2.18946  -2.18734  -2.18518  -1.14570
  Beta  occ. eigenvalues --   -1.14526  -1.14454  -1.14325  -1.14182  -1.14171
  Beta  occ. eigenvalues --   -1.14091  -1.14057  -1.14034  -1.13992  -1.13979
  Beta  occ. eigenvalues --   -1.13924  -1.12678  -1.12606  -1.12590  -1.12413
  Beta  occ. eigenvalues --   -1.12371  -1.12330  -1.12204  -1.12174  -1.12153
  Beta  occ. eigenvalues --   -0.19063  -0.13777  -0.11288
  Beta virt. eigenvalues --   -0.08359  -0.05021  -0.04643  -0.04210  -0.03277
  Beta virt. eigenvalues --   -0.02426  -0.02174  -0.01091  -0.00435  -0.00114
  Beta virt. eigenvalues --    0.00418   0.00663   0.00702   0.00806   0.00912

 Mulliken charges and spin densities:
               1          2
     1  Na   0.080225   0.033700
     2  Na  -0.223652   0.197557
     3  Na  -0.143570   0.222041
     4  Na   0.292165   0.177195
     5  Na  -0.514212   0.052309
     6  Na   0.526752   0.031866
     7  Na  -0.017709   0.285332
 Sum of Mulliken charges =  -0.00000   1.00000

 Dipole moment (field-independent basis, Debye):
    X=              0.0564    Y=             -0.0234    Z=             -0.3348  Tot=              0.3403
 Quadrupole moment (field-independent basis, Debye-Ang):
   XX=            -59.3446   YY=            -61.5392   ZZ=            -76.2661
   XY=              0.4876   XZ=              0.1810   YZ=              7.1645

 Normal termination of Gaussian 16 at Mon Nov 13 17:19:07 2023.
