 Gaussian 16, Revision B.01,
 Gaussian 16:  ES64L-G16RevB.01 20-Dec-2017

 -------------------------
 #P B3LYP/6-311+g(d) force
 -------------------------

 ------------------------------
 Gaussian input prepared by ASE
 ------------------------------
 Symbolic Z-matrix:
 Charge =  0 Multiplicity = 2

                         Standard orientation:
 ---------------------------------------------------------------------
 Center     Atomic      Atomic             Coordinates (Angstroms)
 Number     Number       Type             X           Y           Z
 ---------------------------------------------------------------------
      1         11           0       -0.365015    0.213618   -1.326675
      2         11           0        0.048224    0.848081    1.573933
      3         11           0       -2.311456    1.989228    0.105771
      4         11           0       -3.128265   -0.780654   -0.722985
      5         11           0       -0.765748   -1.917768    0.739499
      6         11           0        1.997785   -0.917947    0.134207
      7         11           0        4.524474    0.565442   -0.503751
 ---------------------------------------------------------------------

 SCF Done:  E(UB3LYP) =  -1136.08896458     A.U. after   32 cycles

 The electronic state is 2-A.
 Alpha  occ. eigenvalues --  -38.45198 -38.45012 -38.44600 -38.44276 -38.43325
 Alpha  occ. eigenvalues --  -38.43021 -38.42642  -2.21350  -2.20840  -2.20597
 Alpha  occ. eigenvalues --   -2.20377  -2.19406  -2.19020  -2.18725  -1.15116
 Alpha  occ. eigenvalues --   -1.15057  -1.14970  -1.14526  -1.14463  -1.14447
 Alpha  occ. eigenvalues --   -1.14278  -1.14240  -1.14220  -1.14084  -1.14027
 Alpha  occ. eigenvalues --   -1.13971  -1.13152  -1.13063  -1.13018  -1.12710
 Alpha  occ. eigenvalues --   -1.12667  -1.12646  -1.12423  -1.12371  -1.12357
 Alpha  occ. eigenvalues --   -0.20251  -0.14684  -0.11673  -0.11578
 Alpha virt. eigenvalues --   -0.07377  -0.04541  -0.04137  -0.03232  -0.02983
 Alpha virt. eigenvalues --   -0.02207  -0.02003  -0.01239  -0.00739  -0.00157
 Alpha virt. eigenvalues --    0.00098   0.00291   0.00439   0.00818   0.00852

  Beta  occ. eigenvalues --  -38.45186 -38.44935 -38.44556 -38.44182 -38.43310
  Beta  occ. eigenvalues --  -38.43006 -38.42641  -2.21333  -2.20696  -2.20517
  Beta  occ. eigenvalues --   -2.20204  -2.19388  -2.18997  -2.18734  -1.15081
  Beta  occ. eigenvalues --   -1.15042  -1.14952  -1.14429  -1.14364  -1.14352
  Beta  occ. eigenvalues --   -1.14231  -1.14182  -1.14163  -1.13964  -1.13905
  Beta  occ. eigenvalues --   -1.13862  -1.13115  -1.13022  -1.13003  -1.12703
  Beta  occ. eigenvalues --   -1.12644  -1.12603  -1.12428  -1.12373  -1.12318
  Beta  occ. eigenvalues --   -0.19642  -0.13951  -0.11343
  Beta virt. eigenvalues --   -0.07960  -0.07066  -0.04313  -0.03523  -0.03001
  Beta virt. eigenvalues --   -0.02764  -0.01700  -0.01405  -0.01078  -0.00417
  Beta virt. eigenvalues --   -0.00043   0.00217   0.00361   0.00603   0.00858

 Mulliken charges and spin densities:
               1          2
     1  Na  -1.049188   0.325202
     2  Na  -0.057646   0.111308
     3  Na  -0.243670   0.072249
     4  Na   1.144142   0.008112
     5  Na   0.166893   0.003292
     6  Na  -0.183847   0.290923
     7  Na   0.223316   0.188913
 Sum of Mulliken charges =  -0.00000   1.00000

 Dipole moment (field-independent basis, Debye):
    X=             -0.0002    Y=              0.0593    Z=              0.2066  Tot=              0.2149
 Quadrupole moment (field-independent basis, Debye-Ang):
   XX=            -55.1445   YY=            -75.2533   ZZ=            -67.5122
   XY=              2.8840   XZ=             -0.8811   YZ=             -0.5402

 Normal termination of Gaussian 16 at Mon Nov 13 16:52:47 2023.
