 Gaussian 16, Revision B.01,
 Gaussian 16:  ES64L-G16RevB.01 20-Dec-2017

 -------------------------
 #P B3LYP/6-311+g(d) force
 -------------------------

 ------------------------------
 Gaussian input prepared by ASE
 ------------------------------
 Symbolic Z-matrix:
 Charge =  0 Multiplicity = 2

                         Standard orientation:
 ---------------------------------------------------------------------
 Center     Atomic      Atomic             Coordinates (Angstroms)
 Number     Number       Type             X           Y           Z
 ---------------------------------------------------------------------
      1         11           0        1.349863   -0.515544    1.618909
      2         11           0        1.236266   -1.852768   -1.056726
      3         11           0        3.313482    0.241717   -0.515980
      4         11           0        1.127367    2.139477    0.261226
      5         11           0       -3.110200    2.111172   -0.409477
      6         11           0       -0.957344    0.026820   -0.217408
      7         11           0       -2.959434   -2.150873    0.319455
 ---------------------------------------------------------------------

 SCF Done:  E(UB3LYP) =  -1136.09611752     A.U. after   27 cycles

 The electronic state is 2-A.
 Alpha  occ. eigenvalues --  -38.45376 -38.44666 -38.44262 -38.43851 -38.43755
 Alpha  occ. eigenvalues --  -38.43601 -38.42911  -2.21154  -2.20667  -2.20071
 Alpha  occ. eigenvalues --   -2.19959  -2.19741  -2.19578  -2.19091  -1.14859
 Alpha  occ. eigenvalues --   -1.14813  -1.14769  -1.14387  -1.14335  -1.14312
 Alpha  occ. eigenvalues --   -1.13785  -1.13736  -1.13720  -1.13682  -1.13643
 Alpha  occ. eigenvalues --   -1.13573  -1.13451  -1.13355  -1.13324  -1.13304
 Alpha  occ. eigenvalues --   -1.13213  -1.13177  -1.12787  -1.12746  -1.12684
 Alpha  occ. eigenvalues --   -0.19549  -0.14160  -0.11878  -0.10344
 Alpha virt. eigenvalues --   -0.06809  -0.06204  -0.03561  -0.03251  -0.02558
 Alpha virt. eigenvalues --   -0.02187  -0.01622  -0.01402  -0.00511  -0.00114
 Alpha virt. eigenvalues --   -0.00014   0.00111   0.00604   0.00663   0.00732

  Beta  occ. eigenvalues --  -38.45382 -38.44626 -38.44240 -38.43776 -38.43717
  Beta  occ. eigenvalues --  -38.43584 -38.42894  -2.21166  -2.20597  -2.20029
  Beta  occ. eigenvalues --   -2.19826  -2.19675  -2.19552  -2.19067  -1.14867
  Beta  occ. eigenvalues --   -1.14818  -1.14774  -1.14347  -1.14285  -1.14226
  Beta  occ. eigenvalues --   -1.13756  -1.13689  -1.13660  -1.13655  -1.13544
  Beta  occ. eigenvalues --   -1.13478  -1.13407  -1.13305  -1.13285  -1.13238
  Beta  occ. eigenvalues --   -1.13187  -1.13128  -1.12775  -1.12689  -1.12660
  Beta  occ. eigenvalues --   -0.18854  -0.13875  -0.11594
  Beta virt. eigenvalues --   -0.06715  -0.06467  -0.05893  -0.03523  -0.02664
  Beta virt. eigenvalues --   -0.02453  -0.01584  -0.01485  -0.00727  -0.00367
  Beta virt. eigenvalues --    0.00019   0.00110   0.00245   0.00656   0.00758

 Mulliken charges and spin densities:
               1          2
     1  Na  -0.206973   0.137988
     2  Na   0.746033   0.202199
     3  Na   0.143631   0.235490
     4  Na   1.201471   0.134161
     5  Na   0.387543   0.052874
     6  Na  -2.675789   0.239646
     7  Na   0.404084  -0.002358
 Sum of Mulliken charges =  -0.00000   1.00000

 Dipole moment (field-independent basis, Debye):
    X=             -0.6573    Y=             -0.4896    Z=              0.6221  Tot=              1.0290
 Quadrupole moment (field-independent basis, Debye-Ang):
   XX=            -49.8179   YY=            -67.1594   ZZ=            -74.1916
   XY=              4.4881   XZ=              0.2625   YZ=             -1.6771

 Normal termination of Gaussian 16 at Mon Nov 13 18:39:25 2023.
