 Gaussian 16, Revision B.01,
 Gaussian 16:  ES64L-G16RevB.01 20-Dec-2017

 -------------------------
 #P B3LYP/6-311+g(d) force
 -------------------------

 ------------------------------
 Gaussian input prepared by ASE
 ------------------------------
 Symbolic Z-matrix:
 Charge =  0 Multiplicity = 2

                         Standard orientation:
 ---------------------------------------------------------------------
 Center     Atomic      Atomic             Coordinates (Angstroms)
 Number     Number       Type             X           Y           Z
 ---------------------------------------------------------------------
      1         11           0        0.907941   -1.527323   -0.272062
      2         11           0       -1.855001   -1.674889    0.886924
      3         11           0       -3.988847    0.201634   -0.067028
      4         11           0       -1.223116    0.370770   -1.208460
      5         11           0        0.284687    2.656480    0.031700
      6         11           0        2.118900    0.683470    1.359033
      7         11           0        3.755436   -0.710141   -0.730107
 ---------------------------------------------------------------------

 SCF Done:  E(UB3LYP) =  -1136.09597179     A.U. after   25 cycles

 The electronic state is 2-A.
 Alpha  occ. eigenvalues --  -38.44875 -38.44501 -38.44214 -38.44051 -38.44022
 Alpha  occ. eigenvalues --  -38.43182 -38.42709  -2.20855  -2.20585  -2.20210
 Alpha  occ. eigenvalues --   -2.19971  -2.19951  -2.19274  -2.18610  -1.14563
 Alpha  occ. eigenvalues --   -1.14542  -1.14499  -1.14339  -1.14316  -1.14214
 Alpha  occ. eigenvalues --   -1.13948  -1.13866  -1.13828  -1.13655  -1.13613
 Alpha  occ. eigenvalues --   -1.13588  -1.13574  -1.13561  -1.13536  -1.12946
 Alpha  occ. eigenvalues --   -1.12931  -1.12888  -1.12294  -1.12281  -1.12226
 Alpha  occ. eigenvalues --   -0.19312  -0.15082  -0.11873  -0.10618
 Alpha virt. eigenvalues --   -0.07491  -0.04493  -0.04162  -0.03615  -0.03496
 Alpha virt. eigenvalues --   -0.02192  -0.01211  -0.01059  -0.00786  -0.00364
 Alpha virt. eigenvalues --   -0.00051   0.00149   0.00413   0.00764   0.00941

  Beta  occ. eigenvalues --  -38.44868 -38.44476 -38.44182 -38.43995 -38.43936
  Beta  occ. eigenvalues --  -38.43142 -38.42710  -2.20847  -2.20548  -2.20163
  Beta  occ. eigenvalues --   -2.19866  -2.19790  -2.19211  -2.18613  -1.14569
  Beta  occ. eigenvalues --   -1.14514  -1.14476  -1.14300  -1.14248  -1.14192
  Beta  occ. eigenvalues --   -1.13853  -1.13826  -1.13805  -1.13596  -1.13533
  Beta  occ. eigenvalues --   -1.13502  -1.13483  -1.13459  -1.13425  -1.12910
  Beta  occ. eigenvalues --   -1.12865  -1.12817  -1.12299  -1.12277  -1.12231
  Beta  occ. eigenvalues --   -0.18648  -0.14342  -0.11649
  Beta virt. eigenvalues --   -0.07321  -0.06921  -0.04244  -0.03983  -0.03338
  Beta virt. eigenvalues --   -0.02749  -0.02132  -0.01166  -0.00510  -0.00385
  Beta virt. eigenvalues --   -0.00040   0.00230   0.00304   0.00570   0.00813

 Mulliken charges and spin densities:
               1          2
     1  Na  -0.757702  -0.020669
     2  Na  -0.065795  -0.072897
     3  Na   0.044082   0.484020
     4  Na   0.447563   0.013975
     5  Na  -0.462769  -0.081037
     6  Na   0.225342   0.280136
     7  Na   0.569279   0.396472
 Sum of Mulliken charges =  -0.00000   1.00000

 Dipole moment (field-independent basis, Debye):
    X=              0.0825    Y=             -0.0499    Z=              0.2967  Tot=              0.3120
 Quadrupole moment (field-independent basis, Debye-Ang):
   XX=            -69.4943   YY=            -75.8354   ZZ=            -60.2244
   XY=              1.2609   XZ=             -2.2461   YZ=             -0.4420

 Normal termination of Gaussian 16 at Mon Nov 13 15:42:55 2023.
