 Gaussian 16, Revision B.01,
 Gaussian 16:  ES64L-G16RevB.01 20-Dec-2017

 -------------------------
 #P B3LYP/6-311+g(d) force
 -------------------------

 ------------------------------
 Gaussian input prepared by ASE
 ------------------------------
 Symbolic Z-matrix:
 Charge =  0 Multiplicity = 2

                         Standard orientation:
 ---------------------------------------------------------------------
 Center     Atomic      Atomic             Coordinates (Angstroms)
 Number     Number       Type             X           Y           Z
 ---------------------------------------------------------------------
      1         11           0       -0.004977   -1.675952   -0.000215
      2         11           0        0.003553    0.132929    1.934655
      3         11           0       -2.529916   -0.865887   -0.000531
      4         11           0       -1.455763    1.575587    0.000436
      5         11           0        0.001889    0.135734   -1.933265
      6         11           0        1.463070    1.572535    0.001138
      7         11           0        2.522145   -0.874945   -0.002219
 ---------------------------------------------------------------------

 SCF Done:  E(UB3LYP) =  -1136.05439691     A.U. after   21 cycles

 The electronic state is 2-A.
 Alpha  occ. eigenvalues --  -38.45036 -38.45034 -38.44371 -38.44363 -38.43731
 Alpha  occ. eigenvalues --  -38.43462 -38.43456  -2.21274  -2.21271  -2.20482
 Alpha  occ. eigenvalues --   -2.20474  -2.20090  -2.19703  -2.19672  -1.15170
 Alpha  occ. eigenvalues --   -1.15109  -1.14955  -1.14944  -1.14882  -1.14858
 Alpha  occ. eigenvalues --   -1.14517  -1.14333  -1.14298  -1.14220  -1.14044
 Alpha  occ. eigenvalues --   -1.14030  -1.13672  -1.13629  -1.13489  -1.13467
 Alpha  occ. eigenvalues --   -1.13331  -1.13306  -1.13283  -1.13257  -1.13131
 Alpha  occ. eigenvalues --   -0.22164  -0.14359  -0.12953  -0.12290
 Alpha virt. eigenvalues --   -0.05503  -0.04203  -0.03987  -0.03842  -0.03072
 Alpha virt. eigenvalues --   -0.02828  -0.01312  -0.00282  -0.00239   0.00299
 Alpha virt. eigenvalues --    0.00739   0.00933   0.01102   0.01120   0.01244

  Beta  occ. eigenvalues --  -38.44931 -38.44928 -38.44364 -38.44356 -38.43704
  Beta  occ. eigenvalues --  -38.43445 -38.43438  -2.21084  -2.21081  -2.20474
  Beta  occ. eigenvalues --   -2.20467  -2.20054  -2.19680  -2.19650  -1.15063
  Beta  occ. eigenvalues --   -1.14984  -1.14818  -1.14808  -1.14756  -1.14716
  Beta  occ. eigenvalues --   -1.14503  -1.14330  -1.14298  -1.14219  -1.13993
  Beta  occ. eigenvalues --   -1.13981  -1.13614  -1.13553  -1.13482  -1.13457
  Beta  occ. eigenvalues --   -1.13276  -1.13252  -1.13244  -1.13219  -1.13125
  Beta  occ. eigenvalues --   -0.21257  -0.13949  -0.11912
  Beta virt. eigenvalues --   -0.08689  -0.05531  -0.03982  -0.03446  -0.03166
  Beta virt. eigenvalues --   -0.02152  -0.02125  -0.01218  -0.00260  -0.00052
  Beta virt. eigenvalues --    0.00326   0.00778   0.00930   0.01115   0.01178

 Mulliken charges and spin densities:
               1          2
     1  Na  -0.269422  -0.009700
     2  Na   0.248463   0.534857
     3  Na  -0.071600  -0.023927
     4  Na  -0.048639  -0.007521
     5  Na   0.249666   0.535061
     6  Na  -0.043361  -0.005923
     7  Na  -0.065106  -0.022846
 Sum of Mulliken charges =  -0.00000   1.00000

 Dipole moment (field-independent basis, Debye):
    X=             -0.0038    Y=              0.1074    Z=              0.0014  Tot=              0.1075
 Quadrupole moment (field-independent basis, Debye-Ang):
   XX=            -57.9534   YY=            -75.6241   ZZ=            -64.9262
   XY=             -0.0006   XZ=             -0.0043   YZ=              0.0120

 Normal termination of Gaussian 16 at Mon Nov 13 20:41:34 2023.
