 Gaussian 16, Revision B.01,
 Gaussian 16:  ES64L-G16RevB.01 20-Dec-2017

 -------------------------
 #P B3LYP/6-311+g(d) force
 -------------------------

 ------------------------------
 Gaussian input prepared by ASE
 ------------------------------
 Symbolic Z-matrix:
 Charge =  0 Multiplicity = 2

                         Standard orientation:
 ---------------------------------------------------------------------
 Center     Atomic      Atomic             Coordinates (Angstroms)
 Number     Number       Type             X           Y           Z
 ---------------------------------------------------------------------
      1         11           0        0.959432    1.473225    0.506468
      2         11           0       -2.049394   -1.435752   -0.581297
      3         11           0       -2.126621    1.582408    0.236108
      4         11           0       -0.455048    0.527123   -1.710582
      5         11           0       -0.808800   -0.686386    1.779335
      6         11           0        1.045200   -1.552942   -0.115407
      7         11           0        3.435230    0.092324   -0.114625
 ---------------------------------------------------------------------

 SCF Done:  E(UB3LYP) =  -1136.08321624     A.U. after   22 cycles

 The electronic state is 2-A.
 Alpha  occ. eigenvalues --  -38.45212 -38.44355 -38.44087 -38.43802 -38.43444
 Alpha  occ. eigenvalues --  -38.43150 -38.42978  -2.21121  -2.20577  -2.20262
 Alpha  occ. eigenvalues --   -2.19924  -2.19525  -2.19322  -2.19150  -1.14847
 Alpha  occ. eigenvalues --   -1.14803  -1.14726  -1.14391  -1.14319  -1.14226
 Alpha  occ. eigenvalues --   -1.14095  -1.13998  -1.13873  -1.13561  -1.13508
 Alpha  occ. eigenvalues --   -1.13469  -1.13213  -1.13171  -1.13124  -1.13053
 Alpha  occ. eigenvalues --   -1.12960  -1.12911  -1.12831  -1.12798  -1.12710
 Alpha  occ. eigenvalues --   -0.21264  -0.14444  -0.12243  -0.11804
 Alpha virt. eigenvalues --   -0.06472  -0.04223  -0.03864  -0.03476  -0.02615
 Alpha virt. eigenvalues --   -0.02596  -0.01911  -0.00571  -0.00177   0.00204
 Alpha virt. eigenvalues --    0.00509   0.00637   0.00829   0.00959   0.01040

  Beta  occ. eigenvalues --  -38.45218 -38.44272 -38.44004 -38.43775 -38.43428
  Beta  occ. eigenvalues --  -38.43124 -38.42958  -2.21134  -2.20429  -2.20112
  Beta  occ. eigenvalues --   -2.19880  -2.19502  -2.19282  -2.19121  -1.14856
  Beta  occ. eigenvalues --   -1.14813  -1.14725  -1.14309  -1.14203  -1.14116
  Beta  occ. eigenvalues --   -1.14014  -1.13892  -1.13756  -1.13504  -1.13478
  Beta  occ. eigenvalues --   -1.13403  -1.13199  -1.13119  -1.13095  -1.13031
  Beta  occ. eigenvalues --   -1.12896  -1.12873  -1.12817  -1.12720  -1.12694
  Beta  occ. eigenvalues --   -0.20404  -0.14200  -0.11596
  Beta virt. eigenvalues --   -0.07835  -0.06337  -0.04216  -0.03291  -0.03060
  Beta virt. eigenvalues --   -0.01932  -0.01884  -0.01484  -0.00500   0.00012
  Beta virt. eigenvalues --    0.00245   0.00531   0.00622   0.00972   0.01028

 Mulliken charges and spin densities:
               1          2
     1  Na  -0.041875   0.218300
     2  Na   0.137073  -0.024347
     3  Na   0.337483   0.027874
     4  Na  -0.167856   0.436315
     5  Na  -0.100936   0.346386
     6  Na   0.014142   0.152534
     7  Na  -0.178030  -0.157063
 Sum of Mulliken charges =  -0.00000   1.00000

 Dipole moment (field-independent basis, Debye):
    X=              0.6886    Y=              0.0258    Z=              0.0518  Tot=              0.6910
 Quadrupole moment (field-independent basis, Debye-Ang):
   XX=            -50.3525   YY=            -76.1176   ZZ=            -68.2828
   XY=              0.0151   XZ=             -0.6561   YZ=              1.9123

 Normal termination of Gaussian 16 at Mon Nov 13 17:01:15 2023.
