 Gaussian 16, Revision B.01,
 Gaussian 16:  ES64L-G16RevB.01 20-Dec-2017

 -------------------------
 #P B3LYP/6-311+g(d) force
 -------------------------

 ------------------------------
 Gaussian input prepared by ASE
 ------------------------------
 Symbolic Z-matrix:
 Charge =  0 Multiplicity = 2

                         Standard orientation:
 ---------------------------------------------------------------------
 Center     Atomic      Atomic             Coordinates (Angstroms)
 Number     Number       Type             X           Y           Z
 ---------------------------------------------------------------------
      1         11           0        0.011920   -0.007191    0.984424
      2         11           0       -0.066625   -2.380176   -0.849768
      3         11           0        2.540938   -1.476168    0.319717
      4         11           0        2.488229    1.520373    0.260056
      5         11           0       -0.183401    2.430971   -0.751660
      6         11           0       -1.828936   -0.004354   -1.372569
      7         11           0       -2.962126   -0.083455    1.409800
 ---------------------------------------------------------------------

 SCF Done:  E(UB3LYP) =  -1136.10521046     A.U. after   20 cycles

 The electronic state is 2-A.
 Alpha  occ. eigenvalues --  -38.44510 -38.43854 -38.43837 -38.43706 -38.43423
 Alpha  occ. eigenvalues --  -38.43390 -38.43251  -2.20426  -2.19829  -2.19803
 Alpha  occ. eigenvalues --   -2.19789  -2.19542  -2.19401  -2.19368  -1.14142
 Alpha  occ. eigenvalues --   -1.14092  -1.14012  -1.13670  -1.13590  -1.13578
 Alpha  occ. eigenvalues --   -1.13557  -1.13492  -1.13469  -1.13433  -1.13409
 Alpha  occ. eigenvalues --   -1.13354  -1.13238  -1.13229  -1.13137  -1.13042
 Alpha  occ. eigenvalues --   -1.13015  -1.13006  -1.12984  -1.12970  -1.12951
 Alpha  occ. eigenvalues --   -0.19868  -0.14140  -0.12618  -0.11170
 Alpha virt. eigenvalues --   -0.05783  -0.04919  -0.04473  -0.03605  -0.02605
 Alpha virt. eigenvalues --   -0.02257  -0.01676  -0.00614  -0.00238   0.00264
 Alpha virt. eigenvalues --    0.00300   0.00336   0.00809   0.00914   0.00927

  Beta  occ. eigenvalues --  -38.44440 -38.43851 -38.43835 -38.43660 -38.43393
  Beta  occ. eigenvalues --  -38.43364 -38.43214  -2.20297  -2.19825  -2.19801
  Beta  occ. eigenvalues --   -2.19711  -2.19482  -2.19350  -2.19323  -1.14059
  Beta  occ. eigenvalues --   -1.13995  -1.13924  -1.13659  -1.13575  -1.13554
  Beta  occ. eigenvalues --   -1.13540  -1.13455  -1.13436  -1.13412  -1.13353
  Beta  occ. eigenvalues --   -1.13317  -1.13208  -1.13166  -1.13092  -1.12996
  Beta  occ. eigenvalues --   -1.12975  -1.12964  -1.12942  -1.12938  -1.12912
  Beta  occ. eigenvalues --   -0.19198  -0.13784  -0.12433
  Beta virt. eigenvalues --   -0.07184  -0.05590  -0.04772  -0.04240  -0.03059
  Beta virt. eigenvalues --   -0.02061  -0.01714  -0.01073  -0.00573   0.00040
  Beta virt. eigenvalues --    0.00302   0.00355   0.00400   0.00942   0.00962

 Mulliken charges and spin densities:
               1          2
     1  Na  -0.367663   0.449441
     2  Na  -0.762553   0.097896
     3  Na   0.778869  -0.077649
     4  Na   0.588029  -0.070044
     5  Na  -0.698395   0.096250
     6  Na   0.824023   0.331717
     7  Na  -0.362311   0.172389
 Sum of Mulliken charges =  -0.00000   1.00000

 Dipole moment (field-independent basis, Debye):
    X=             -0.0742    Y=             -0.0168    Z=             -0.2032  Tot=              0.2170
 Quadrupole moment (field-independent basis, Debye-Ang):
   XX=            -55.0939   YY=            -67.9088   ZZ=            -71.5364
   XY=             -0.0745   XZ=             -0.2735   YZ=             -0.1222

 Normal termination of Gaussian 16 at Mon Nov 13 16:06:55 2023.
