 Gaussian 16, Revision B.01,
 Gaussian 16:  ES64L-G16RevB.01 20-Dec-2017

 -------------------------
 #P B3LYP/6-311+g(d) force
 -------------------------

 ------------------------------
 Gaussian input prepared by ASE
 ------------------------------
 Symbolic Z-matrix:
 Charge =  0 Multiplicity = 2

                         Standard orientation:
 ---------------------------------------------------------------------
 Center     Atomic      Atomic             Coordinates (Angstroms)
 Number     Number       Type             X           Y           Z
 ---------------------------------------------------------------------
      1         11           0       -1.626799    0.456746    1.229451
      2         11           0        1.726738    0.627185   -1.200488
      3         11           0        3.164287   -1.468589    0.231071
      4         11           0        1.103080    0.202605    1.440298
      5         11           0       -0.344339    2.261298   -0.410952
      6         11           0       -0.619410   -0.795425   -0.997407
      7         11           0       -3.403558   -1.283820   -0.291973
 ---------------------------------------------------------------------

 SCF Done:  E(UB3LYP) =  -1136.07086141     A.U. after   21 cycles

 The electronic state is 2-A.
 Alpha  occ. eigenvalues --  -38.44408 -38.44346 -38.44261 -38.44157 -38.44030
 Alpha  occ. eigenvalues --  -38.43999 -38.43025  -2.20664  -2.20592  -2.20472
 Alpha  occ. eigenvalues --   -2.20398  -2.19949  -2.19932  -2.19161  -1.14689
 Alpha  occ. eigenvalues --   -1.14628  -1.14523  -1.14393  -1.14331  -1.14244
 Alpha  occ. eigenvalues --   -1.14067  -1.14018  -1.13976  -1.13958  -1.13951
 Alpha  occ. eigenvalues --   -1.13912  -1.13599  -1.13587  -1.13584  -1.13561
 Alpha  occ. eigenvalues --   -1.13549  -1.13525  -1.12838  -1.12824  -1.12720
 Alpha  occ. eigenvalues --   -0.20942  -0.14590  -0.12061  -0.11932
 Alpha virt. eigenvalues --   -0.06420  -0.04660  -0.04153  -0.03166  -0.02552
 Alpha virt. eigenvalues --   -0.02360  -0.01913  -0.01005  -0.00298   0.00187
 Alpha virt. eigenvalues --    0.00434   0.00633   0.00825   0.00868   0.01079

  Beta  occ. eigenvalues --  -38.44354 -38.44296 -38.44211 -38.44085 -38.44029
  Beta  occ. eigenvalues --  -38.43996 -38.43007  -2.20571  -2.20504  -2.20386
  Beta  occ. eigenvalues --   -2.20271  -2.19949  -2.19928  -2.19137  -1.14632
  Beta  occ. eigenvalues --   -1.14558  -1.14421  -1.14299  -1.14273  -1.14188
  Beta  occ. eigenvalues --   -1.14006  -1.13937  -1.13894  -1.13888  -1.13873
  Beta  occ. eigenvalues --   -1.13823  -1.13594  -1.13575  -1.13573  -1.13548
  Beta  occ. eigenvalues --   -1.13530  -1.13522  -1.12820  -1.12801  -1.12662
  Beta  occ. eigenvalues --   -0.20145  -0.14431  -0.11754
  Beta virt. eigenvalues --   -0.07596  -0.06268  -0.04630  -0.03509  -0.02836
  Beta virt. eigenvalues --   -0.01968  -0.01769  -0.01481  -0.00875  -0.00006
  Beta virt. eigenvalues --    0.00223   0.00431   0.00747   0.00870   0.01038

 Mulliken charges and spin densities:
               1          2
     1  Na   0.218979   0.115601
     2  Na  -0.269290   0.214041
     3  Na   0.537570  -0.028684
     4  Na  -0.289358   0.302869
     5  Na   0.174109   0.033083
     6  Na  -0.717852   0.403401
     7  Na   0.345841  -0.040310
 Sum of Mulliken charges =  -0.00000   1.00000

 Dipole moment (field-independent basis, Debye):
    X=              0.0115    Y=              0.0939    Z=             -0.0907  Tot=              0.1310
 Quadrupole moment (field-independent basis, Debye-Ang):
   XX=            -54.8120   YY=            -70.2952   ZZ=            -70.2383
   XY=             -1.6445   XZ=             -0.5129   YZ=             -0.5224

 Normal termination of Gaussian 16 at Mon Nov 13 19:40:48 2023.
