 Gaussian 16, Revision B.01,
 Gaussian 16:  ES64L-G16RevB.01 20-Dec-2017

 -------------------------
 #P B3LYP/6-311+g(d) force
 -------------------------

 ------------------------------
 Gaussian input prepared by ASE
 ------------------------------
 Symbolic Z-matrix:
 Charge =  0 Multiplicity = 2

                         Standard orientation:
 ---------------------------------------------------------------------
 Center     Atomic      Atomic             Coordinates (Angstroms)
 Number     Number       Type             X           Y           Z
 ---------------------------------------------------------------------
      1         11           0       -0.504941    0.272462   -1.069107
      2         11           0        1.650490   -1.931852    0.220006
      3         11           0       -0.572969    2.846776    0.258653
      4         11           0        1.125900    0.800100    1.398661
      5         11           0        2.172643    0.143099   -1.426158
      6         11           0       -0.776386   -1.228519    1.156600
      7         11           0       -3.094736   -0.902065   -0.538655
 ---------------------------------------------------------------------

 SCF Done:  E(UB3LYP) =  -1136.07547372     A.U. after   20 cycles

 The electronic state is 2-A.
 Alpha  occ. eigenvalues --  -38.44716 -38.44093 -38.44021 -38.43915 -38.43674
 Alpha  occ. eigenvalues --  -38.43583 -38.43529  -2.20807  -2.20269  -2.20036
 Alpha  occ. eigenvalues --   -2.20016  -2.19963  -2.19898  -2.19460  -1.14700
 Alpha  occ. eigenvalues --   -1.14555  -1.14380  -1.14330  -1.14174  -1.14003
 Alpha  occ. eigenvalues --   -1.13803  -1.13700  -1.13679  -1.13642  -1.13610
 Alpha  occ. eigenvalues --   -1.13603  -1.13536  -1.13504  -1.13489  -1.13474
 Alpha  occ. eigenvalues --   -1.13456  -1.13435  -1.13094  -1.13089  -1.13037
 Alpha  occ. eigenvalues --   -0.20921  -0.13555  -0.12705  -0.12085
 Alpha virt. eigenvalues --   -0.05395  -0.04619  -0.03736  -0.03446  -0.03122
 Alpha virt. eigenvalues --   -0.02694  -0.01209  -0.00820  -0.00242   0.00312
 Alpha virt. eigenvalues --    0.00658   0.00870   0.00883   0.00988   0.01130

  Beta  occ. eigenvalues --  -38.44654 -38.44083 -38.43971 -38.43898 -38.43608
  Beta  occ. eigenvalues --  -38.43532 -38.43526  -2.20695  -2.20187  -2.20011
  Beta  occ. eigenvalues --   -2.19996  -2.19877  -2.19783  -2.19457  -1.14628
  Beta  occ. eigenvalues --   -1.14474  -1.14300  -1.14267  -1.14109  -1.13930
  Beta  occ. eigenvalues --   -1.13756  -1.13672  -1.13634  -1.13602  -1.13587
  Beta  occ. eigenvalues --   -1.13553  -1.13487  -1.13461  -1.13421  -1.13398
  Beta  occ. eigenvalues --   -1.13383  -1.13350  -1.13078  -1.13062  -1.13035
  Beta  occ. eigenvalues --   -0.20111  -0.13307  -0.12435
  Beta virt. eigenvalues --   -0.07774  -0.05246  -0.04609  -0.03498  -0.02938
  Beta virt. eigenvalues --   -0.02309  -0.01671  -0.01051  -0.00782   0.00007
  Beta virt. eigenvalues --    0.00356   0.00662   0.00892   0.00947   0.01076

 Mulliken charges and spin densities:
               1          2
     1  Na  -0.894746   0.099368
     2  Na   0.055961   0.194278
     3  Na  -0.207659   0.014155
     4  Na  -0.053281   0.303217
     5  Na   0.527154   0.201270
     6  Na   0.102357   0.180844
     7  Na   0.470214   0.006867
 Sum of Mulliken charges =  -0.00000   1.00000

 Dipole moment (field-independent basis, Debye):
    X=             -0.1098    Y=              0.2710    Z=             -0.1502  Tot=              0.3287
 Quadrupole moment (field-independent basis, Debye-Ang):
   XX=            -59.0378   YY=            -66.4001   ZZ=            -68.8902
   XY=             -1.2222   XZ=             -0.0282   YZ=             -0.1115

 Normal termination of Gaussian 16 at Mon Nov 13 19:11:21 2023.
