 Gaussian 16, Revision B.01,
 Gaussian 16:  ES64L-G16RevB.01 20-Dec-2017

 -------------------------
 #P B3LYP/6-311+g(d) force
 -------------------------

 ------------------------------
 Gaussian input prepared by ASE
 ------------------------------
 Symbolic Z-matrix:
 Charge =  0 Multiplicity = 2

                         Standard orientation:
 ---------------------------------------------------------------------
 Center     Atomic      Atomic             Coordinates (Angstroms)
 Number     Number       Type             X           Y           Z
 ---------------------------------------------------------------------
      1         11           0       -2.310905    0.412063    0.507480
      2         11           0       -1.139609    0.327738   -2.025791
      3         11           0        4.003745   -0.170292   -0.129556
      4         11           0        1.118150   -0.388432   -0.505396
      5         11           0       -0.222187    2.257955    0.247843
      6         11           0       -0.086805   -0.297399    2.037449
      7         11           0       -1.362388   -2.141633   -0.132029
 ---------------------------------------------------------------------

 SCF Done:  E(UB3LYP) =  -1136.07883974     A.U. after   26 cycles

 The electronic state is 2-A.
 Alpha  occ. eigenvalues --  -38.45053 -38.45033 -38.44825 -38.44491 -38.43159
 Alpha  occ. eigenvalues --  -38.42633 -38.42582  -2.21151  -2.20953  -2.20846
 Alpha  occ. eigenvalues --   -2.20741  -2.19394  -2.18708  -2.18654  -1.14999
 Alpha  occ. eigenvalues --   -1.14867  -1.14807  -1.14702  -1.14697  -1.14567
 Alpha  occ. eigenvalues --   -1.14492  -1.14481  -1.14477  -1.14384  -1.14343
 Alpha  occ. eigenvalues --   -1.14274  -1.13113  -1.13080  -1.12968  -1.12419
 Alpha  occ. eigenvalues --   -1.12379  -1.12342  -1.12319  -1.12282  -1.12253
 Alpha  occ. eigenvalues --   -0.21096  -0.13226  -0.12866  -0.11940
 Alpha virt. eigenvalues --   -0.06675  -0.03955  -0.03534  -0.03266  -0.02993
 Alpha virt. eigenvalues --   -0.02877  -0.01935  -0.00502  -0.00398   0.00165
 Alpha virt. eigenvalues --    0.00338   0.00473   0.00574   0.00868   0.01117

  Beta  occ. eigenvalues --  -38.45064 -38.44931 -38.44729 -38.44457 -38.43129
  Beta  occ. eigenvalues --  -38.42621 -38.42566  -2.20970  -2.20866  -2.20783
  Beta  occ. eigenvalues --   -2.20685  -2.19346  -2.18692  -2.18632  -1.14886
  Beta  occ. eigenvalues --   -1.14739  -1.14707  -1.14592  -1.14569  -1.14553
  Beta  occ. eigenvalues --   -1.14494  -1.14491  -1.14390  -1.14315  -1.14293
  Beta  occ. eigenvalues --   -1.14172  -1.13076  -1.13003  -1.12944  -1.12416
  Beta  occ. eigenvalues --   -1.12368  -1.12327  -1.12262  -1.12248  -1.12215
  Beta  occ. eigenvalues --   -0.20128  -0.13073  -0.11625
  Beta virt. eigenvalues --   -0.08471  -0.06493  -0.03525  -0.03063  -0.02891
  Beta virt. eigenvalues --   -0.02384  -0.02058  -0.01862  -0.00403  -0.00192
  Beta virt. eigenvalues --    0.00212   0.00444   0.00545   0.00646   0.00910

 Mulliken charges and spin densities:
               1          2
     1  Na   0.525552   0.228800
     2  Na  -0.269236   0.105155
     3  Na   0.495476  -0.044783
     4  Na   0.458375   0.409862
     5  Na  -0.450227  -0.031735
     6  Na  -0.195043   0.345412
     7  Na  -0.564896  -0.012712
 Sum of Mulliken charges =  -0.00000   1.00000

 Dipole moment (field-independent basis, Debye):
    X=              0.6130    Y=              0.1465    Z=              0.0509  Tot=              0.6323
 Quadrupole moment (field-independent basis, Debye-Ang):
   XX=            -55.2057   YY=            -74.5139   ZZ=            -63.8962
   XY=              0.9787   XZ=              1.0440   YZ=              1.2453

 Normal termination of Gaussian 16 at Mon Nov 13 19:14:28 2023.
