 Gaussian 16, Revision B.01,
 Gaussian 16:  ES64L-G16RevB.01 20-Dec-2017

 -------------------------
 #P B3LYP/6-311+g(d) force
 -------------------------

 ------------------------------
 Gaussian input prepared by ASE
 ------------------------------
 Symbolic Z-matrix:
 Charge =  0 Multiplicity = 2

                         Standard orientation:
 ---------------------------------------------------------------------
 Center     Atomic      Atomic             Coordinates (Angstroms)
 Number     Number       Type             X           Y           Z
 ---------------------------------------------------------------------
      1         11           0        1.333488    0.078381    1.495273
      2         11           0       -1.667331    0.111761    1.537150
      3         11           0       -2.312101    2.153779   -0.565188
      4         11           0       -2.370034   -0.768092   -1.241824
      5         11           0       -0.211438   -2.188920    0.283572
      6         11           0        2.189935   -1.080887   -1.135680
      7         11           0        3.037480    1.693978   -0.373303
 ---------------------------------------------------------------------

 SCF Done:  E(UB3LYP) =  -1136.10196369     A.U. after   21 cycles

 The electronic state is 2-A.
 Alpha  occ. eigenvalues --  -38.44458 -38.44400 -38.44003 -38.43995 -38.43910
 Alpha  occ. eigenvalues --  -38.43764 -38.42482  -2.20451  -2.20386  -2.20093
 Alpha  occ. eigenvalues --   -2.20004  -2.19893  -2.19656  -2.18558  -1.14200
 Alpha  occ. eigenvalues --   -1.14143  -1.14118  -1.14075  -1.14066  -1.14010
 Alpha  occ. eigenvalues --   -1.13892  -1.13749  -1.13733  -1.13703  -1.13654
 Alpha  occ. eigenvalues --   -1.13594  -1.13542  -1.13503  -1.13475  -1.13322
 Alpha  occ. eigenvalues --   -1.13301  -1.13265  -1.12237  -1.12225  -1.12192
 Alpha  occ. eigenvalues --   -0.19528  -0.14665  -0.11822  -0.11664
 Alpha virt. eigenvalues --   -0.05860  -0.05035  -0.04646  -0.03504  -0.02975
 Alpha virt. eigenvalues --   -0.02663  -0.01278  -0.00509  -0.00225  -0.00193
 Alpha virt. eigenvalues --    0.00369   0.00415   0.00534   0.00741   0.00843

  Beta  occ. eigenvalues --  -38.44414 -38.44368 -38.44000 -38.43935 -38.43847
  Beta  occ. eigenvalues --  -38.43758 -38.42466  -2.20370  -2.20325  -2.19990
  Beta  occ. eigenvalues --   -2.19901  -2.19884  -2.19647  -2.18537  -1.14151
  Beta  occ. eigenvalues --   -1.14105  -1.14056  -1.14022  -1.14012  -1.13963
  Beta  occ. eigenvalues --   -1.13795  -1.13687  -1.13668  -1.13641  -1.13589
  Beta  occ. eigenvalues --   -1.13526  -1.13519  -1.13493  -1.13417  -1.13307
  Beta  occ. eigenvalues --   -1.13281  -1.13257  -1.12225  -1.12221  -1.12115
  Beta  occ. eigenvalues --   -0.18775  -0.14445  -0.11572
  Beta virt. eigenvalues --   -0.07583  -0.05779  -0.04777  -0.04063  -0.03482
  Beta virt. eigenvalues --   -0.02200  -0.01762  -0.01230  -0.00455  -0.00144
  Beta virt. eigenvalues --    0.00073   0.00454   0.00474   0.00636   0.00815

 Mulliken charges and spin densities:
               1          2
     1  Na  -0.567423   0.123187
     2  Na  -0.011527   0.090009
     3  Na  -0.063849   0.023687
     4  Na  -0.157614   0.203273
     5  Na   0.303184   0.436492
     6  Na   0.080175   0.111253
     7  Na   0.417055   0.012100
 Sum of Mulliken charges =  -0.00000   1.00000

 Dipole moment (field-independent basis, Debye):
    X=              0.1946    Y=              0.3863    Z=             -0.7023  Tot=              0.8248
 Quadrupole moment (field-independent basis, Debye-Ang):
   XX=            -62.4176   YY=            -68.8171   ZZ=            -67.6367
   XY=              1.5885   XZ=             -0.8851   YZ=              0.0412

 Normal termination of Gaussian 16 at Mon Nov 13 16:31:34 2023.
