 Gaussian 16, Revision B.01,
 Gaussian 16:  ES64L-G16RevB.01 20-Dec-2017

 -------------------------
 #P B3LYP/6-311+g(d) force
 -------------------------

 ------------------------------
 Gaussian input prepared by ASE
 ------------------------------
 Symbolic Z-matrix:
 Charge =  0 Multiplicity = 2

                         Standard orientation:
 ---------------------------------------------------------------------
 Center     Atomic      Atomic             Coordinates (Angstroms)
 Number     Number       Type             X           Y           Z
 ---------------------------------------------------------------------
      1         11           0        3.327884   -2.477456   -0.094420
      2         11           0       -2.931095    2.723038   -0.414621
      3         11           0       -3.264379   -2.108487   -1.445359
      4         11           0       -3.017858   -0.050873    0.723554
      5         11           0       -0.281840   -0.354589    1.916531
      6         11           0        1.968804    0.194604    0.007488
      7         11           0        4.198485    2.073764   -0.693173
 ---------------------------------------------------------------------

 SCF Done:  E(UB3LYP) =  -1136.08082098     A.U. after   28 cycles

 The electronic state is 2-A.
 Alpha  occ. eigenvalues --  -38.46731 -38.45161 -38.44800 -38.44593 -38.43934
 Alpha  occ. eigenvalues --  -38.43703 -38.43585  -2.22492  -2.21000  -2.20581
 Alpha  occ. eigenvalues --   -2.20479  -2.19910  -2.19689  -2.19400  -1.16190
 Alpha  occ. eigenvalues --   -1.16150  -1.16105  -1.14685  -1.14612  -1.14593
 Alpha  occ. eigenvalues --   -1.14304  -1.14234  -1.14233  -1.14219  -1.14150
 Alpha  occ. eigenvalues --   -1.14051  -1.13603  -1.13547  -1.13539  -1.13411
 Alpha  occ. eigenvalues --   -1.13374  -1.13327  -1.13047  -1.13038  -1.13016
 Alpha  occ. eigenvalues --   -0.17171  -0.14817  -0.11494  -0.10632
 Alpha virt. eigenvalues --   -0.08002  -0.05590  -0.04142  -0.03600  -0.02849
 Alpha virt. eigenvalues --   -0.02674  -0.01989  -0.01657  -0.01311  -0.00554
 Alpha virt. eigenvalues --   -0.00389  -0.00200   0.00090   0.00203   0.00274

  Beta  occ. eigenvalues --  -38.46724 -38.45036 -38.44807 -38.44538 -38.43920
  Beta  occ. eigenvalues --  -38.43693 -38.43560  -2.22479  -2.20768  -2.20596
  Beta  occ. eigenvalues --   -2.20377  -2.19894  -2.19676  -2.19354  -1.16183
  Beta  occ. eigenvalues --   -1.16142  -1.16092  -1.14527  -1.14454  -1.14436
  Beta  occ. eigenvalues --   -1.14317  -1.14244  -1.14224  -1.14166  -1.14084
  Beta  occ. eigenvalues --   -1.13975  -1.13556  -1.13547  -1.13498  -1.13373
  Beta  occ. eigenvalues --   -1.13363  -1.13320  -1.13019  -1.13007  -1.12983
  Beta  occ. eigenvalues --   -0.16547  -0.14329  -0.10420
  Beta virt. eigenvalues --   -0.07859  -0.07662  -0.05261  -0.03778  -0.03339
  Beta virt. eigenvalues --   -0.02508  -0.02300  -0.01672  -0.01305  -0.01196
  Beta virt. eigenvalues --   -0.00270  -0.00221  -0.00077   0.00188   0.00296

 Mulliken charges and spin densities:
               1          2
     1  Na   1.218352   0.072652
     2  Na  -0.291641   0.027245
     3  Na   0.001000   0.539428
     4  Na   1.082999  -0.000207
     5  Na   0.800851   0.342584
     6  Na  -2.757169   0.019641
     7  Na  -0.054393  -0.001343
 Sum of Mulliken charges =  -0.00000   1.00000

 Dipole moment (field-independent basis, Debye):
    X=              0.8186    Y=             -1.6698    Z=             -0.3926  Tot=              1.9006
 Quadrupole moment (field-independent basis, Debye-Ang):
   XX=            -64.2295   YY=            -65.1907   ZZ=            -70.1714
   XY=             -9.7842   XZ=              0.6586   YZ=              2.6970

 Normal termination of Gaussian 16 at Mon Nov 13 15:01:00 2023.
