 Gaussian 16, Revision B.01,
 Gaussian 16:  ES64L-G16RevB.01 20-Dec-2017

 -------------------------
 #P B3LYP/6-311+g(d) force
 -------------------------

 ------------------------------
 Gaussian input prepared by ASE
 ------------------------------
 Symbolic Z-matrix:
 Charge =  0 Multiplicity = 2

                         Standard orientation:
 ---------------------------------------------------------------------
 Center     Atomic      Atomic             Coordinates (Angstroms)
 Number     Number       Type             X           Y           Z
 ---------------------------------------------------------------------
      1         11           0       -1.237951    0.288312   -1.654124
      2         11           0       -2.825948   -0.064399    0.583278
      3         11           0       -0.062838   -0.484832    1.770966
      4         11           0       -0.672806   -2.099788   -0.403558
      5         11           0       -0.704509    2.165673    0.318150
      6         11           0        1.398432    0.200681   -0.808321
      7         11           0        4.105621   -0.005649    0.193608
 ---------------------------------------------------------------------

 SCF Done:  E(UB3LYP) =  -1136.07548556     A.U. after   26 cycles

 The electronic state is 2-A.
 Alpha  occ. eigenvalues --  -38.45928 -38.45019 -38.44468 -38.44443 -38.43402
 Alpha  occ. eigenvalues --  -38.42689 -38.42496  -2.21716  -2.21100  -2.20752
 Alpha  occ. eigenvalues --   -2.20561  -2.19573  -2.18812  -2.18578  -1.15443
 Alpha  occ. eigenvalues --   -1.15350  -1.15343  -1.14987  -1.14808  -1.14663
 Alpha  occ. eigenvalues --   -1.14543  -1.14373  -1.14319  -1.14301  -1.14200
 Alpha  occ. eigenvalues --   -1.14146  -1.13311  -1.13216  -1.13131  -1.12523
 Alpha  occ. eigenvalues --   -1.12466  -1.12370  -1.12300  -1.12217  -1.12171
 Alpha  occ. eigenvalues --   -0.21016  -0.13790  -0.12238  -0.11680
 Alpha virt. eigenvalues --   -0.07446  -0.03734  -0.03517  -0.03294  -0.02651
 Alpha virt. eigenvalues --   -0.02599  -0.02504  -0.00656  -0.00363   0.00043
 Alpha virt. eigenvalues --    0.00319   0.00345   0.00422   0.00858   0.01123

  Beta  occ. eigenvalues --  -38.45939 -38.44991 -38.44378 -38.44364 -38.43365
  Beta  occ. eigenvalues --  -38.42669 -38.42478  -2.21736  -2.21054  -2.20593
  Beta  occ. eigenvalues --   -2.20418  -2.19514  -2.18782  -2.18551  -1.15457
  Beta  occ. eigenvalues --   -1.15363  -1.15354  -1.14943  -1.14733  -1.14636
  Beta  occ. eigenvalues --   -1.14433  -1.14250  -1.14232  -1.14202  -1.14095
  Beta  occ. eigenvalues --   -1.14031  -1.13274  -1.13123  -1.13095  -1.12510
  Beta  occ. eigenvalues --   -1.12399  -1.12341  -1.12288  -1.12169  -1.12136
  Beta  occ. eigenvalues --   -0.20116  -0.13661  -0.11372
  Beta virt. eigenvalues --   -0.07809  -0.07313  -0.03330  -0.03306  -0.03088
  Beta virt. eigenvalues --   -0.02489  -0.01826  -0.01525  -0.00367  -0.00316
  Beta virt. eigenvalues --    0.00073   0.00326   0.00389   0.00544   0.00916

 Mulliken charges and spin densities:
               1          2
     1  Na  -0.739906   0.153341
     2  Na   0.813685   0.181940
     3  Na   0.252351   0.655227
     4  Na  -0.881759  -0.175872
     5  Na  -0.978048   0.003736
     6  Na   1.026904   0.268388
     7  Na   0.506773  -0.086761
 Sum of Mulliken charges =  -0.00000   1.00000

 Dipole moment (field-independent basis, Debye):
    X=              0.9023    Y=             -0.0748    Z=              0.6919  Tot=              1.1395
 Quadrupole moment (field-independent basis, Debye-Ang):
   XX=            -46.2599   YY=            -77.0936   ZZ=            -68.2476
   XY=             -0.1783   XZ=              1.2219   YZ=              1.3949

 Normal termination of Gaussian 16 at Mon Nov 13 18:46:45 2023.
