 Gaussian 16, Revision B.01,
 Gaussian 16:  ES64L-G16RevB.01 20-Dec-2017

 -------------------------
 #P B3LYP/6-311+g(d) force
 -------------------------

 ------------------------------
 Gaussian input prepared by ASE
 ------------------------------
 Symbolic Z-matrix:
 Charge =  0 Multiplicity = 2

                         Standard orientation:
 ---------------------------------------------------------------------
 Center     Atomic      Atomic             Coordinates (Angstroms)
 Number     Number       Type             X           Y           Z
 ---------------------------------------------------------------------
      1         11           0       -0.231959   -0.177763   -1.497163
      2         11           0        0.767430    0.225075    1.726980
      3         11           0        2.418378   -1.097912   -0.410674
      4         11           0        1.554353    1.583312   -0.478491
      5         11           0       -0.455145   -1.908913    0.578774
      6         11           0       -1.210900    1.853005    0.341284
      7         11           0       -2.842156   -0.476803   -0.260710
 ---------------------------------------------------------------------

 SCF Done:  E(UB3LYP) =  -1136.07346957     A.U. after   20 cycles

 The electronic state is 2-A.
 Alpha  occ. eigenvalues --  -38.44398 -38.44338 -38.44105 -38.43856 -38.43815
 Alpha  occ. eigenvalues --  -38.43403 -38.43126  -2.20661  -2.20483  -2.20358
 Alpha  occ. eigenvalues --   -2.20038  -2.19936  -2.19574  -2.19268  -1.14555
 Alpha  occ. eigenvalues --   -1.14453  -1.14407  -1.14282  -1.14269  -1.14186
 Alpha  occ. eigenvalues --   -1.14025  -1.14011  -1.13953  -1.13814  -1.13631
 Alpha  occ. eigenvalues --   -1.13585  -1.13574  -1.13554  -1.13430  -1.13224
 Alpha  occ. eigenvalues --   -1.13190  -1.13099  -1.12961  -1.12895  -1.12853
 Alpha  occ. eigenvalues --   -0.21673  -0.14289  -0.12557  -0.12207
 Alpha virt. eigenvalues --   -0.05643  -0.04270  -0.03809  -0.03739  -0.02922
 Alpha virt. eigenvalues --   -0.02665  -0.01405  -0.00434  -0.00111   0.00312
 Alpha virt. eigenvalues --    0.00674   0.00783   0.01051   0.01118   0.01205

  Beta  occ. eigenvalues --  -38.44333 -38.44306 -38.44027 -38.43840 -38.43790
  Beta  occ. eigenvalues --  -38.43377 -38.43110  -2.20495  -2.20367  -2.20331
  Beta  occ. eigenvalues --   -2.20000  -2.19911  -2.19534  -2.19245  -1.14475
  Beta  occ. eigenvalues --   -1.14338  -1.14319  -1.14195  -1.14160  -1.14105
  Beta  occ. eigenvalues --   -1.14021  -1.13983  -1.13903  -1.13782  -1.13594
  Beta  occ. eigenvalues --   -1.13559  -1.13502  -1.13490  -1.13409  -1.13195
  Beta  occ. eigenvalues --   -1.13109  -1.13076  -1.12950  -1.12852  -1.12819
  Beta  occ. eigenvalues --   -0.20866  -0.13959  -0.12232
  Beta virt. eigenvalues --   -0.07915  -0.05604  -0.04265  -0.03673  -0.02929
  Beta virt. eigenvalues --   -0.02049  -0.01588  -0.01295  -0.00411   0.00063
  Beta virt. eigenvalues --    0.00345   0.00692   0.00778   0.01058   0.01136

 Mulliken charges and spin densities:
               1          2
     1  Na  -0.702179   0.316782
     2  Na  -0.295591   0.409973
     3  Na   0.022464  -0.070126
     4  Na   0.281547   0.088339
     5  Na   0.353149   0.177298
     6  Na   0.075538   0.117339
     7  Na   0.265072  -0.039604
 Sum of Mulliken charges =  -0.00000   1.00000

 Dipole moment (field-independent basis, Debye):
    X=             -0.1685    Y=             -0.1639    Z=              0.1229  Tot=              0.2653
 Quadrupole moment (field-independent basis, Debye-Ang):
   XX=            -55.7500   YY=            -71.7802   ZZ=            -69.1070
   XY=             -0.8240   XZ=             -1.0304   YZ=             -0.0121

 Normal termination of Gaussian 16 at Mon Nov 13 19:53:43 2023.
