 Gaussian 16, Revision B.01,
 Gaussian 16:  ES64L-G16RevB.01 20-Dec-2017

 -------------------------
 #P B3LYP/6-311+g(d) force
 -------------------------

 ------------------------------
 Gaussian input prepared by ASE
 ------------------------------
 Symbolic Z-matrix:
 Charge =  0 Multiplicity = 2

                         Standard orientation:
 ---------------------------------------------------------------------
 Center     Atomic      Atomic             Coordinates (Angstroms)
 Number     Number       Type             X           Y           Z
 ---------------------------------------------------------------------
      1         11           0       -1.038813   -0.295045    1.424476
      2         11           0        1.716907    0.074539    1.538887
      3         11           0       -3.375697   -0.019829   -0.272111
      4         11           0       -0.664747   -0.084922   -1.301842
      5         11           0        0.804689   -2.195176   -0.232270
      6         11           0        0.214552    2.206696    0.022605
      7         11           0        2.343108    0.313737   -1.179744
 ---------------------------------------------------------------------

 SCF Done:  E(UB3LYP) =  -1136.08373438     A.U. after   25 cycles

 The electronic state is 2-A.
 Alpha  occ. eigenvalues --  -38.44872 -38.44292 -38.44285 -38.43933 -38.43930
 Alpha  occ. eigenvalues --  -38.42509 -38.42472  -2.20786  -2.20472  -2.20376
 Alpha  occ. eigenvalues --   -2.20274  -2.20155  -2.18587  -2.18549  -1.14595
 Alpha  occ. eigenvalues --   -1.14497  -1.14380  -1.14366  -1.14360  -1.14175
 Alpha  occ. eigenvalues --   -1.14128  -1.14034  -1.13957  -1.13922  -1.13891
 Alpha  occ. eigenvalues --   -1.13834  -1.13739  -1.13679  -1.13657  -1.12317
 Alpha  occ. eigenvalues --   -1.12287  -1.12225  -1.12200  -1.12171  -1.12115
 Alpha  occ. eigenvalues --   -0.21155  -0.14060  -0.12440  -0.11877
 Alpha virt. eigenvalues --   -0.06159  -0.04053  -0.03525  -0.03485  -0.02821
 Alpha virt. eigenvalues --   -0.02638  -0.01835  -0.00479  -0.00269   0.00272
 Alpha virt. eigenvalues --    0.00546   0.00688   0.00906   0.01017   0.01051

  Beta  occ. eigenvalues --  -38.44868 -38.44252 -38.44218 -38.43874 -38.43865
  Beta  occ. eigenvalues --  -38.42496 -38.42459  -2.20779  -2.20360  -2.20300
  Beta  occ. eigenvalues --   -2.20170  -2.20043  -2.18569  -2.18532  -1.14576
  Beta  occ. eigenvalues --   -1.14474  -1.14359  -1.14315  -1.14271  -1.14102
  Beta  occ. eigenvalues --   -1.14049  -1.13961  -1.13889  -1.13863  -1.13821
  Beta  occ. eigenvalues --   -1.13762  -1.13647  -1.13603  -1.13560  -1.12309
  Beta  occ. eigenvalues --   -1.12281  -1.12184  -1.12147  -1.12139  -1.12106
  Beta  occ. eigenvalues --   -0.20313  -0.13900  -0.11544
  Beta virt. eigenvalues --   -0.08007  -0.06071  -0.03527  -0.03415  -0.03267
  Beta virt. eigenvalues --   -0.01905  -0.01815  -0.01626  -0.00251  -0.00144
  Beta virt. eigenvalues --    0.00308   0.00594   0.00834   0.00889   0.01034

 Mulliken charges and spin densities:
               1          2
     1  Na  -0.105209   0.115005
     2  Na   0.927853   0.165174
     3  Na  -0.158510   0.102449
     4  Na   0.612840   0.227863
     5  Na  -0.975110   0.363218
     6  Na  -1.162779   0.080115
     7  Na   0.860915  -0.053825
 Sum of Mulliken charges =  -0.00000   1.00000

 Dipole moment (field-independent basis, Debye):
    X=             -0.4434    Y=              0.0763    Z=             -0.0992  Tot=              0.4608
 Quadrupole moment (field-independent basis, Debye-Ang):
   XX=            -52.2082   YY=            -74.9264   ZZ=            -66.5867
   XY=             -0.2200   XZ=             -0.1421   YZ=              0.0674

 Normal termination of Gaussian 16 at Mon Nov 13 19:46:56 2023.
