 Gaussian 16, Revision B.01,
 Gaussian 16:  ES64L-G16RevB.01 20-Dec-2017

 -------------------------
 #P B3LYP/6-311+g(d) force
 -------------------------

 ------------------------------
 Gaussian input prepared by ASE
 ------------------------------
 Symbolic Z-matrix:
 Charge =  0 Multiplicity = 2

                         Standard orientation:
 ---------------------------------------------------------------------
 Center     Atomic      Atomic             Coordinates (Angstroms)
 Number     Number       Type             X           Y           Z
 ---------------------------------------------------------------------
      1         11           0        1.105300    1.942322    0.196450
      2         11           0        1.686580   -0.614897    1.642498
      3         11           0        2.883356   -0.120591   -1.063116
      4         11           0        0.774152   -2.226212   -0.712610
      5         11           0       -1.738403    2.627788   -0.441288
      6         11           0       -1.037624   -0.143702    0.474748
      7         11           0       -3.673361   -1.464708   -0.096681
 ---------------------------------------------------------------------

 SCF Done:  E(UB3LYP) =  -1136.09913390     A.U. after   23 cycles

 The electronic state is 2-A.
 Alpha  occ. eigenvalues --  -38.45040 -38.44321 -38.44263 -38.44111 -38.43796
 Alpha  occ. eigenvalues --  -38.43154 -38.42764  -2.20823  -2.20293  -2.20265
 Alpha  occ. eigenvalues --   -2.19989  -2.19906  -2.19221  -2.18950  -1.14527
 Alpha  occ. eigenvalues --   -1.14472  -1.14450  -1.14111  -1.14010  -1.13972
 Alpha  occ. eigenvalues --   -1.13952  -1.13895  -1.13792  -1.13734  -1.13633
 Alpha  occ. eigenvalues --   -1.13626  -1.13620  -1.13526  -1.13477  -1.12957
 Alpha  occ. eigenvalues --   -1.12854  -1.12844  -1.12642  -1.12589  -1.12552
 Alpha  occ. eigenvalues --   -0.19771  -0.13886  -0.12446  -0.10700
 Alpha virt. eigenvalues --   -0.06825  -0.05409  -0.03997  -0.03225  -0.02543
 Alpha virt. eigenvalues --   -0.02197  -0.01677  -0.00994  -0.00440  -0.00143
 Alpha virt. eigenvalues --   -0.00037   0.00224   0.00497   0.00757   0.00884

  Beta  occ. eigenvalues --  -38.45045 -38.44296 -38.44206 -38.44111 -38.43716
  Beta  occ. eigenvalues --  -38.43134 -38.42732  -2.20833  -2.20250  -2.20162
  Beta  occ. eigenvalues --   -2.19989  -2.19765  -2.19191  -2.18900  -1.14534
  Beta  occ. eigenvalues --   -1.14477  -1.14457  -1.14074  -1.13949  -1.13906
  Beta  occ. eigenvalues --   -1.13897  -1.13817  -1.13735  -1.13733  -1.13632
  Beta  occ. eigenvalues --   -1.13615  -1.13522  -1.13424  -1.13369  -1.12934
  Beta  occ. eigenvalues --   -1.12846  -1.12770  -1.12613  -1.12529  -1.12495
  Beta  occ. eigenvalues --   -0.18993  -0.13709  -0.12262
  Beta virt. eigenvalues --   -0.06688  -0.06529  -0.05184  -0.03951  -0.02738
  Beta virt. eigenvalues --   -0.02141  -0.01829  -0.00997  -0.00772  -0.00248
  Beta virt. eigenvalues --   -0.00006   0.00107   0.00311   0.00640   0.00806

 Mulliken charges and spin densities:
               1          2
     1  Na   1.672600   0.338397
     2  Na   0.622529  -0.030605
     3  Na   0.129443   0.312810
     4  Na   0.564510   0.154105
     5  Na  -0.128634  -0.186708
     6  Na  -2.899192   0.519111
     7  Na   0.038744  -0.107110
 Sum of Mulliken charges =  -0.00000   1.00000

 Dipole moment (field-independent basis, Debye):
    X=             -0.6939    Y=             -0.2970    Z=             -0.1278  Tot=              0.7655
 Quadrupole moment (field-independent basis, Debye-Ang):
   XX=            -52.3969   YY=            -66.1485   ZZ=            -73.6082
   XY=              0.1875   XZ=              2.4610   YZ=             -0.3486

 Normal termination of Gaussian 16 at Mon Nov 13 18:55:29 2023.
