 Gaussian 16, Revision B.01,
 Gaussian 16:  ES64L-G16RevB.01 20-Dec-2017

 -------------------------
 #P B3LYP/6-311+g(d) force
 -------------------------

 ------------------------------
 Gaussian input prepared by ASE
 ------------------------------
 Symbolic Z-matrix:
 Charge =  0 Multiplicity = 2

                         Standard orientation:
 ---------------------------------------------------------------------
 Center     Atomic      Atomic             Coordinates (Angstroms)
 Number     Number       Type             X           Y           Z
 ---------------------------------------------------------------------
      1         11           0        0.294341   -1.134266   -0.803145
      2         11           0       -0.009293    1.841942   -0.619397
      3         11           0        2.653315    0.641324   -1.297146
      4         11           0        2.532392   -1.040902    1.186435
      5         11           0       -0.124388    0.174455    1.866483
      6         11           0       -2.666725    1.079667    0.549067
      7         11           0       -2.679643   -1.562219   -0.882296
 ---------------------------------------------------------------------

 SCF Done:  E(UB3LYP) =  -1136.09741393     A.U. after   30 cycles

 The electronic state is 2-A.
 Alpha  occ. eigenvalues --  -38.44785 -38.44457 -38.44387 -38.44286 -38.43581
 Alpha  occ. eigenvalues --  -38.43368 -38.42697  -2.20782  -2.20486  -2.20448
 Alpha  occ. eigenvalues --   -2.20279  -2.19539  -2.19482  -2.18768  -1.14512
 Alpha  occ. eigenvalues --   -1.14469  -1.14393  -1.14320  -1.14238  -1.14096
 Alpha  occ. eigenvalues --   -1.14065  -1.14050  -1.14028  -1.13954  -1.13916
 Alpha  occ. eigenvalues --   -1.13894  -1.13295  -1.13246  -1.13203  -1.13135
 Alpha  occ. eigenvalues --   -1.13097  -1.13033  -1.12470  -1.12413  -1.12380
 Alpha  occ. eigenvalues --   -0.20378  -0.14734  -0.12280  -0.11268
 Alpha virt. eigenvalues --   -0.06477  -0.04749  -0.04538  -0.03461  -0.02662
 Alpha virt. eigenvalues --   -0.02271  -0.02194  -0.00694  -0.00414   0.00191
 Alpha virt. eigenvalues --    0.00482   0.00558   0.00590   0.00866   0.00938

  Beta  occ. eigenvalues --  -38.44742 -38.44417 -38.44296 -38.44278 -38.43566
  Beta  occ. eigenvalues --  -38.43335 -38.42680  -2.20704  -2.20380  -2.20321
  Beta  occ. eigenvalues --   -2.20267  -2.19487  -2.19456  -2.18742  -1.14462
  Beta  occ. eigenvalues --   -1.14400  -1.14341  -1.14217  -1.14144  -1.14043
  Beta  occ. eigenvalues --   -1.13997  -1.13981  -1.13953  -1.13935  -1.13909
  Beta  occ. eigenvalues --   -1.13826  -1.13267  -1.13217  -1.13119  -1.13114
  Beta  occ. eigenvalues --   -1.13071  -1.13010  -1.12460  -1.12382  -1.12330
  Beta  occ. eigenvalues --   -0.19615  -0.14492  -0.10987
  Beta virt. eigenvalues --   -0.08081  -0.06373  -0.04454  -0.03958  -0.03010
  Beta virt. eigenvalues --   -0.02256  -0.01916  -0.01543  -0.00422  -0.00252
  Beta virt. eigenvalues --    0.00216   0.00517   0.00609   0.00716   0.00925

 Mulliken charges and spin densities:
               1          2
     1  Na   0.105848   0.804070
     2  Na  -1.347067   0.127283
     3  Na   0.770756  -0.259572
     4  Na   0.459065  -0.025759
     5  Na  -0.849208   0.197237
     6  Na   2.011181   0.298658
     7  Na  -1.150574  -0.141916
 Sum of Mulliken charges =  -0.00000   1.00000

 Dipole moment (field-independent basis, Debye):
    X=              0.4699    Y=              0.3093    Z=              0.2130  Tot=              0.6015
 Quadrupole moment (field-independent basis, Debye-Ang):
   XX=            -49.5321   YY=            -78.6304   ZZ=            -67.2908
   XY=             -1.3358   XZ=             -1.1422   YZ=             -1.7695

 Normal termination of Gaussian 16 at Mon Nov 13 16:53:16 2023.
