 Gaussian 16, Revision B.01,
 Gaussian 16:  ES64L-G16RevB.01 20-Dec-2017

 -------------------------
 #P B3LYP/6-311+g(d) force
 -------------------------

 ------------------------------
 Gaussian input prepared by ASE
 ------------------------------
 Symbolic Z-matrix:
 Charge =  0 Multiplicity = 2

                         Standard orientation:
 ---------------------------------------------------------------------
 Center     Atomic      Atomic             Coordinates (Angstroms)
 Number     Number       Type             X           Y           Z
 ---------------------------------------------------------------------
      1         11           0        0.379030   -0.014118    1.421672
      2         11           0       -0.282925    2.359841   -0.306991
      3         11           0        3.288114   -0.011061    0.718043
      4         11           0        1.224134    0.064247   -1.452026
      5         11           0       -0.196487   -2.335689   -0.409537
      6         11           0       -1.781168    0.006459   -1.428845
      7         11           0       -2.630697   -0.069679    1.457685
 ---------------------------------------------------------------------

 SCF Done:  E(UB3LYP) =  -1136.10439141     A.U. after   23 cycles

 The electronic state is 2-A.
 Alpha  occ. eigenvalues --  -38.44625 -38.44621 -38.43748 -38.43557 -38.43517
 Alpha  occ. eigenvalues --  -38.42488 -38.42408  -2.20548  -2.20515  -2.19868
 Alpha  occ. eigenvalues --   -2.19758  -2.19728  -2.18491  -2.18411  -1.14283
 Alpha  occ. eigenvalues --   -1.14241  -1.14232  -1.14211  -1.14109  -1.14098
 Alpha  occ. eigenvalues --   -1.13719  -1.13562  -1.13492  -1.13487  -1.13383
 Alpha  occ. eigenvalues --   -1.13373  -1.13365  -1.13337  -1.13298  -1.12222
 Alpha  occ. eigenvalues --   -1.12142  -1.12140  -1.12065  -1.12063  -1.11988
 Alpha  occ. eigenvalues --   -0.20443  -0.13705  -0.12424  -0.11666
 Alpha virt. eigenvalues --   -0.05885  -0.04413  -0.03468  -0.03306  -0.03063
 Alpha virt. eigenvalues --   -0.02667  -0.01789  -0.00648  -0.00304   0.00302
 Alpha virt. eigenvalues --    0.00484   0.00563   0.00904   0.00974   0.01009

  Beta  occ. eigenvalues --  -38.44609 -38.44570 -38.43698 -38.43499 -38.43458
  Beta  occ. eigenvalues --  -38.42473 -38.42397  -2.20488  -2.20456  -2.19785
  Beta  occ. eigenvalues --   -2.19659  -2.19625  -2.18470  -2.18396  -1.14227
  Beta  occ. eigenvalues --   -1.14194  -1.14182  -1.14175  -1.14081  -1.14049
  Beta  occ. eigenvalues --   -1.13640  -1.13482  -1.13429  -1.13428  -1.13316
  Beta  occ. eigenvalues --   -1.13299  -1.13271  -1.13268  -1.13207  -1.12206
  Beta  occ. eigenvalues --   -1.12130  -1.12093  -1.12056  -1.12019  -1.11983
  Beta  occ. eigenvalues --   -0.19623  -0.13460  -0.11365
  Beta virt. eigenvalues --   -0.08150  -0.05775  -0.03774  -0.03372  -0.03274
  Beta virt. eigenvalues --   -0.02017  -0.01922  -0.01619  -0.00299  -0.00283
  Beta virt. eigenvalues --    0.00323   0.00559   0.00680   0.00892   0.01018

 Mulliken charges and spin densities:
               1          2
     1  Na  -0.485163   0.389588
     2  Na  -0.498957   0.295817
     3  Na   0.291662   0.174418
     4  Na   0.241053  -0.086587
     5  Na  -0.524762   0.269047
     6  Na   0.605836   0.022544
     7  Na   0.370332  -0.064828
 Sum of Mulliken charges =  -0.00000   1.00000

 Dipole moment (field-independent basis, Debye):
    X=              0.1103    Y=             -0.0254    Z=              0.4930  Tot=              0.5059
 Quadrupole moment (field-independent basis, Debye-Ang):
   XX=            -52.9843   YY=            -74.6884   ZZ=            -65.2190
   XY=             -0.0044   XZ=             -0.2257   YZ=              0.1129

 Normal termination of Gaussian 16 at Mon Nov 13 19:29:12 2023.
