 Gaussian 16, Revision B.01,
 Gaussian 16:  ES64L-G16RevB.01 20-Dec-2017

 -------------------------
 #P B3LYP/6-311+g(d) force
 -------------------------

 ------------------------------
 Gaussian input prepared by ASE
 ------------------------------
 Symbolic Z-matrix:
 Charge =  0 Multiplicity = 2

                         Standard orientation:
 ---------------------------------------------------------------------
 Center     Atomic      Atomic             Coordinates (Angstroms)
 Number     Number       Type             X           Y           Z
 ---------------------------------------------------------------------
      1         11           0        1.025108   -1.997188    1.308134
      2         11           0        0.912215   -1.307993   -1.608293
      3         11           0        2.895079    0.904843   -1.180257
      4         11           0        1.653539    0.921395    1.555402
      5         11           0       -3.525803   -1.355256   -0.306732
      6         11           0       -0.943413    0.032408    0.332653
      7         11           0       -2.016725    2.801791   -0.100907
 ---------------------------------------------------------------------

 SCF Done:  E(UB3LYP) =  -1136.09957733     A.U. after   23 cycles

 The electronic state is 2-A.
 Alpha  occ. eigenvalues --  -38.45330 -38.44549 -38.44069 -38.43916 -38.43855
 Alpha  occ. eigenvalues --  -38.43764 -38.42583  -2.21107  -2.20455  -2.20066
 Alpha  occ. eigenvalues --   -2.19859  -2.19767  -2.19706  -2.18778  -1.14810
 Alpha  occ. eigenvalues --   -1.14762  -1.14718  -1.14176  -1.14145  -1.14057
 Alpha  occ. eigenvalues --   -1.13807  -1.13736  -1.13665  -1.13645  -1.13503
 Alpha  occ. eigenvalues --   -1.13483  -1.13440  -1.13419  -1.13364  -1.13363
 Alpha  occ. eigenvalues --   -1.13318  -1.13306  -1.12476  -1.12456  -1.12375
 Alpha  occ. eigenvalues --   -0.19226  -0.13449  -0.11765  -0.11390
 Alpha virt. eigenvalues --   -0.06594  -0.05119  -0.03573  -0.03217  -0.02901
 Alpha virt. eigenvalues --   -0.02502  -0.02106  -0.00981  -0.00476   0.00000
 Alpha virt. eigenvalues --    0.00246   0.00269   0.00404   0.00727   0.00955

  Beta  occ. eigenvalues --  -38.45327 -38.44497 -38.44013 -38.43919 -38.43801
  Beta  occ. eigenvalues --  -38.43710 -38.42562  -2.21102  -2.20363  -2.19965
  Beta  occ. eigenvalues --   -2.19764  -2.19713  -2.19673  -2.18747  -1.14808
  Beta  occ. eigenvalues --   -1.14755  -1.14715  -1.14102  -1.14072  -1.13996
  Beta  occ. eigenvalues --   -1.13746  -1.13664  -1.13575  -1.13563  -1.13441
  Beta  occ. eigenvalues --   -1.13431  -1.13409  -1.13366  -1.13362  -1.13323
  Beta  occ. eigenvalues --   -1.13290  -1.13229  -1.12454  -1.12388  -1.12361
  Beta  occ. eigenvalues --   -0.18437  -0.13206  -0.11316
  Beta virt. eigenvalues --   -0.07462  -0.06494  -0.04915  -0.03159  -0.02998
  Beta virt. eigenvalues --   -0.02162  -0.02057  -0.01601  -0.00848  -0.00160
  Beta virt. eigenvalues --    0.00055   0.00236   0.00303   0.00493   0.00734

 Mulliken charges and spin densities:
               1          2
     1  Na   1.055870  -0.100406
     2  Na  -0.945152   0.399241
     3  Na   0.750379  -0.018089
     4  Na   0.410389   0.089057
     5  Na   0.426324  -0.003019
     6  Na  -1.893031   0.694363
     7  Na   0.195221  -0.061147
 Sum of Mulliken charges =  -0.00000   1.00000

 Dipole moment (field-independent basis, Debye):
    X=             -0.4026    Y=             -0.4065    Z=             -0.3070  Tot=              0.6492
 Quadrupole moment (field-independent basis, Debye-Ang):
   XX=            -53.9721   YY=            -67.9241   ZZ=            -69.0552
   XY=              2.6844   XZ=              1.6611   YZ=             -1.7420

 Normal termination of Gaussian 16 at Mon Nov 13 18:38:37 2023.
