 Gaussian 16, Revision B.01,
 Gaussian 16:  ES64L-G16RevB.01 20-Dec-2017

 -------------------------
 #P B3LYP/6-311+g(d) force
 -------------------------

 ------------------------------
 Gaussian input prepared by ASE
 ------------------------------
 Symbolic Z-matrix:
 Charge =  0 Multiplicity = 2

                         Standard orientation:
 ---------------------------------------------------------------------
 Center     Atomic      Atomic             Coordinates (Angstroms)
 Number     Number       Type             X           Y           Z
 ---------------------------------------------------------------------
      1         11           0        4.372372   -2.091119    0.406230
      2         11           0       -0.508346    3.205111    0.826520
      3         11           0        4.332955    0.815902   -0.315178
      4         11           0        1.774545   -0.751938   -0.269624
      5         11           0       -0.941659    0.517051   -0.431310
      6         11           0       -3.907297    0.309088   -0.845741
      7         11           0       -5.122571   -2.004095    0.629104
 ---------------------------------------------------------------------

 SCF Done:  E(UB3LYP) =  -1136.09608338     A.U. after   20 cycles

 The electronic state is 2-A.
 Alpha  occ. eigenvalues --  -38.45550 -38.45168 -38.43946 -38.43945 -38.43865
 Alpha  occ. eigenvalues --  -38.43649 -38.43193  -2.21435  -2.21070  -2.19765
 Alpha  occ. eigenvalues --   -2.19748  -2.19732  -2.19668  -2.19172  -1.15157
 Alpha  occ. eigenvalues --   -1.15111  -1.15071  -1.14758  -1.14696  -1.14664
 Alpha  occ. eigenvalues --   -1.13541  -1.13469  -1.13461  -1.13408  -1.13400
 Alpha  occ. eigenvalues --   -1.13390  -1.13386  -1.13366  -1.13359  -1.13327
 Alpha  occ. eigenvalues --   -1.13281  -1.13273  -1.12855  -1.12805  -1.12769
 Alpha  occ. eigenvalues --   -0.17266  -0.14904  -0.11950  -0.09997
 Alpha virt. eigenvalues --   -0.06805  -0.06060  -0.04169  -0.03596  -0.02950
 Alpha virt. eigenvalues --   -0.02468  -0.01644  -0.01524  -0.01146  -0.00656
 Alpha virt. eigenvalues --   -0.00179   0.00135   0.00341   0.00450   0.00488

  Beta  occ. eigenvalues --  -38.45549 -38.45119 -38.43949 -38.43901 -38.43862
  Beta  occ. eigenvalues --  -38.43577 -38.43168  -2.21438  -2.20978  -2.19752
  Beta  occ. eigenvalues --   -2.19730  -2.19678  -2.19542  -2.19134  -1.15161
  Beta  occ. eigenvalues --   -1.15081  -1.15071  -1.14690  -1.14633  -1.14605
  Beta  occ. eigenvalues --   -1.13543  -1.13459  -1.13410  -1.13403  -1.13390
  Beta  occ. eigenvalues --   -1.13356  -1.13348  -1.13329  -1.13282  -1.13268
  Beta  occ. eigenvalues --   -1.13228  -1.13191  -1.12814  -1.12771  -1.12721
  Beta  occ. eigenvalues --   -0.16662  -0.14706  -0.11712
  Beta virt. eigenvalues --   -0.06638  -0.06322  -0.05652  -0.03863  -0.03326
  Beta virt. eigenvalues --   -0.02866  -0.02088  -0.01520  -0.01286  -0.00719
  Beta virt. eigenvalues --   -0.00359   0.00041   0.00264   0.00485   0.00550

 Mulliken charges and spin densities:
               1          2
     1  Na   1.291304   0.096915
     2  Na   0.387334   0.222867
     3  Na   0.211040   0.391283
     4  Na  -1.683527   0.192405
     5  Na  -0.586063   0.160800
     6  Na   0.007849  -0.031754
     7  Na   0.372063  -0.032517
 Sum of Mulliken charges =  -0.00000   1.00000

 Dipole moment (field-independent basis, Debye):
    X=              2.0432    Y=             -1.1317    Z=              0.6370  Tot=              2.4210
 Quadrupole moment (field-independent basis, Debye-Ang):
   XX=            -62.6505   YY=            -61.5264   ZZ=            -69.6200
   XY=             -4.4918   XZ=             -1.1520   YZ=             -5.0379

 Normal termination of Gaussian 16 at Mon Nov 13 15:18:39 2023.
