 Gaussian 16, Revision B.01,
 Gaussian 16:  ES64L-G16RevB.01 20-Dec-2017

 -------------------------
 #P B3LYP/6-311+g(d) force
 -------------------------

 ------------------------------
 Gaussian input prepared by ASE
 ------------------------------
 Symbolic Z-matrix:
 Charge =  0 Multiplicity = 2

                         Standard orientation:
 ---------------------------------------------------------------------
 Center     Atomic      Atomic             Coordinates (Angstroms)
 Number     Number       Type             X           Y           Z
 ---------------------------------------------------------------------
      1         11           0        0.013410    0.170308   -1.674383
      2         11           0        1.222604    1.750409    0.115482
      3         11           0        2.464157   -0.628561   -0.016313
      4         11           0        0.062089   -0.050881    1.739450
      5         11           0        0.123100   -1.924668   -0.207949
      6         11           0       -2.324578   -0.933816    0.121384
      7         11           0       -1.560783    1.617209   -0.077672
 ---------------------------------------------------------------------

 SCF Done:  E(UB3LYP) =  -1136.04003121     A.U. after   20 cycles

 The electronic state is 2-A.
 Alpha  occ. eigenvalues --  -38.44961 -38.44567 -38.44262 -38.44258 -38.44142
 Alpha  occ. eigenvalues --  -38.43983 -38.43947  -2.21377  -2.20918  -2.20508
 Alpha  occ. eigenvalues --   -2.20437  -2.20393  -2.20258  -2.20169  -1.15340
 Alpha  occ. eigenvalues --   -1.15252  -1.15033  -1.14811  -1.14762  -1.14621
 Alpha  occ. eigenvalues --   -1.14517  -1.14376  -1.14273  -1.14216  -1.14037
 Alpha  occ. eigenvalues --   -1.14003  -1.13981  -1.13941  -1.13888  -1.13805
 Alpha  occ. eigenvalues --   -1.13769  -1.13738  -1.13708  -1.13660  -1.13540
 Alpha  occ. eigenvalues --   -0.22497  -0.14313  -0.12993  -0.12646
 Alpha virt. eigenvalues --   -0.05338  -0.04172  -0.03969  -0.03916  -0.03201
 Alpha virt. eigenvalues --   -0.02752  -0.01104  -0.00364  -0.00086   0.00310
 Alpha virt. eigenvalues --    0.00850   0.00940   0.01083   0.01209   0.01296

  Beta  occ. eigenvalues --  -38.44861 -38.44468 -38.44250 -38.44247 -38.44118
  Beta  occ. eigenvalues --  -38.43964 -38.43931  -2.21200  -2.20741  -2.20479
  Beta  occ. eigenvalues --   -2.20422  -2.20372  -2.20232  -2.20147  -1.15241
  Beta  occ. eigenvalues --   -1.15135  -1.14914  -1.14714  -1.14650  -1.14567
  Beta  occ. eigenvalues --   -1.14455  -1.14371  -1.14232  -1.14187  -1.13978
  Beta  occ. eigenvalues --   -1.13959  -1.13915  -1.13877  -1.13839  -1.13751
  Beta  occ. eigenvalues --   -1.13705  -1.13702  -1.13673  -1.13643  -1.13534
  Beta  occ. eigenvalues --   -0.21657  -0.13889  -0.12593
  Beta virt. eigenvalues --   -0.08355  -0.05387  -0.04147  -0.03884  -0.02883
  Beta virt. eigenvalues --   -0.02244  -0.01710  -0.01025  -0.00331   0.00056
  Beta virt. eigenvalues --    0.00335   0.00861   0.00937   0.01100   0.01226

 Mulliken charges and spin densities:
               1          2
     1  Na  -0.308772   0.430813
     2  Na   0.190792   0.040995
     3  Na  -0.112676  -0.070661
     4  Na  -0.223374   0.499120
     5  Na   0.349326   0.086854
     6  Na  -0.070393  -0.027446
     7  Na   0.175096   0.040326
 Sum of Mulliken charges =  -0.00000   1.00000

 Dipole moment (field-independent basis, Debye):
    X=             -0.0251    Y=             -0.0094    Z=              0.1872  Tot=              0.1891
 Quadrupole moment (field-independent basis, Debye-Ang):
   XX=            -59.5877   YY=            -71.3596   ZZ=            -68.2790
   XY=             -0.1117   XZ=             -0.1928   YZ=              0.2027

 Normal termination of Gaussian 16 at Mon Nov 13 20:44:02 2023.
