 Gaussian 16, Revision B.01,
 Gaussian 16:  ES64L-G16RevB.01 20-Dec-2017

 -------------------------
 #P B3LYP/6-311+g(d) force
 -------------------------

 ------------------------------
 Gaussian input prepared by ASE
 ------------------------------
 Symbolic Z-matrix:
 Charge =  0 Multiplicity = 2

                         Standard orientation:
 ---------------------------------------------------------------------
 Center     Atomic      Atomic             Coordinates (Angstroms)
 Number     Number       Type             X           Y           Z
 ---------------------------------------------------------------------
      1         11           0        2.322820   -1.532297   -0.845344
      2         11           0        2.659595    0.066213    1.667799
      3         11           0        2.311534    1.464407   -0.961030
      4         11           0        0.000255    0.003521    0.277911
      5         11           0       -2.643128   -0.643231    1.546743
      6         11           0       -2.249909   -1.070635   -1.395117
      7         11           0       -2.401166    1.712022   -0.290962
 ---------------------------------------------------------------------

 SCF Done:  E(UB3LYP) =  -1136.08030730     A.U. after   52 cycles

 The electronic state is 2-A.
 Alpha  occ. eigenvalues --  -38.45188 -38.45130 -38.44448 -38.44247 -38.43916
 Alpha  occ. eigenvalues --  -38.43776 -38.43256  -2.21171  -2.21114  -2.20428
 Alpha  occ. eigenvalues --   -2.20226  -2.19894  -2.19753  -2.19558  -1.14907
 Alpha  occ. eigenvalues --   -1.14850  -1.14827  -1.14775  -1.14772  -1.14721
 Alpha  occ. eigenvalues --   -1.14167  -1.14054  -1.14051  -1.13992  -1.13868
 Alpha  occ. eigenvalues --   -1.13856  -1.13624  -1.13535  -1.13502  -1.13489
 Alpha  occ. eigenvalues --   -1.13404  -1.13363  -1.13267  -1.13237  -1.13085
 Alpha  occ. eigenvalues --   -0.19704  -0.16002  -0.11068  -0.10153
 Alpha virt. eigenvalues --   -0.06590  -0.06202  -0.05415  -0.02910  -0.02490
 Alpha virt. eigenvalues --   -0.01797  -0.01697  -0.00998  -0.00602  -0.00230
 Alpha virt. eigenvalues --    0.00255   0.00293   0.00364   0.00373   0.00573

  Beta  occ. eigenvalues --  -38.45146 -38.45088 -38.44422 -38.44228 -38.43902
  Beta  occ. eigenvalues --  -38.43767 -38.43217  -2.21093  -2.21035  -2.20381
  Beta  occ. eigenvalues --   -2.20194  -2.19873  -2.19741  -2.19504  -1.14859
  Beta  occ. eigenvalues --   -1.14803  -1.14765  -1.14722  -1.14709  -1.14666
  Beta  occ. eigenvalues --   -1.14135  -1.14027  -1.13998  -1.13970  -1.13839
  Beta  occ. eigenvalues --   -1.13818  -1.13612  -1.13493  -1.13488  -1.13480
  Beta  occ. eigenvalues --   -1.13365  -1.13355  -1.13215  -1.13124  -1.13060
  Beta  occ. eigenvalues --   -0.18986  -0.15780  -0.09960
  Beta virt. eigenvalues --   -0.07362  -0.06302  -0.05414  -0.05153  -0.02586
  Beta virt. eigenvalues --   -0.02404  -0.01374  -0.01192  -0.00542  -0.00376
  Beta virt. eigenvalues --   -0.00008   0.00299   0.00463   0.00524   0.00554

 Mulliken charges and spin densities:
               1          2
     1  Na   0.039289  -0.244408
     2  Na  -0.092985   0.004189
     3  Na   0.379323   0.119348
     4  Na  -0.702230   1.243487
     5  Na  -0.100952  -0.038145
     6  Na   0.389748   0.073616
     7  Na   0.087808  -0.158087
 Sum of Mulliken charges =  -0.00000   1.00000

 Dipole moment (field-independent basis, Debye):
    X=             -0.0027    Y=             -0.0556    Z=              0.2326  Tot=              0.2392
 Quadrupole moment (field-independent basis, Debye-Ang):
   XX=            -47.4607   YY=            -80.7516   ZZ=            -65.1782
   XY=              0.5114   XZ=              0.0100   YZ=             -3.7431

 Normal termination of Gaussian 16 at Mon Nov 13 20:29:23 2023.
