 Gaussian 16, Revision B.01,
 Gaussian 16:  ES64L-G16RevB.01 20-Dec-2017

 -------------------------
 #P B3LYP/6-311+g(d) force
 -------------------------

 ------------------------------
 Gaussian input prepared by ASE
 ------------------------------
 Symbolic Z-matrix:
 Charge =  0 Multiplicity = 2

                         Standard orientation:
 ---------------------------------------------------------------------
 Center     Atomic      Atomic             Coordinates (Angstroms)
 Number     Number       Type             X           Y           Z
 ---------------------------------------------------------------------
      1         11           0        0.195984   -0.212744   -1.375241
      2         11           0       -1.298429    1.364868    0.800779
      3         11           0       -1.153886   -1.815800    0.827954
      4         11           0       -2.494973   -0.281200   -0.939670
      5         11           0        1.157893    2.295730   -0.345362
      6         11           0        0.964286    0.053804    1.436754
      7         11           0        2.629126   -1.404659   -0.405214
 ---------------------------------------------------------------------

 SCF Done:  E(UB3LYP) =  -1136.07227549     A.U. after   21 cycles

 The electronic state is 2-A.
 Alpha  occ. eigenvalues --  -38.44749 -38.43993 -38.43876 -38.43691 -38.43682
 Alpha  occ. eigenvalues --  -38.43611 -38.43374  -2.20888  -2.20210  -2.20057
 Alpha  occ. eigenvalues --   -2.19934  -2.19872  -2.19809  -2.19426  -1.14813
 Alpha  occ. eigenvalues --   -1.14596  -1.14558  -1.14241  -1.14051  -1.13932
 Alpha  occ. eigenvalues --   -1.13806  -1.13703  -1.13670  -1.13571  -1.13515
 Alpha  occ. eigenvalues --   -1.13503  -1.13476  -1.13462  -1.13444  -1.13427
 Alpha  occ. eigenvalues --   -1.13389  -1.13330  -1.13080  -1.13044  -1.12970
 Alpha  occ. eigenvalues --   -0.21387  -0.13950  -0.12552  -0.12167
 Alpha virt. eigenvalues --   -0.05365  -0.04454  -0.03813  -0.03528  -0.02887
 Alpha virt. eigenvalues --   -0.02696  -0.01199  -0.00668  -0.00195   0.00335
 Alpha virt. eigenvalues --    0.00735   0.00870   0.00951   0.01064   0.01109

  Beta  occ. eigenvalues --  -38.44720 -38.43986 -38.43805 -38.43660 -38.43610
  Beta  occ. eigenvalues --  -38.43576 -38.43365  -2.20837  -2.20088  -2.19939
  Beta  occ. eigenvalues --   -2.19913  -2.19817  -2.19758  -2.19413  -1.14780
  Beta  occ. eigenvalues --   -1.14550  -1.14500  -1.14165  -1.13973  -1.13843
  Beta  occ. eigenvalues --   -1.13741  -1.13617  -1.13601  -1.13532  -1.13496
  Beta  occ. eigenvalues --   -1.13456  -1.13441  -1.13423  -1.13390  -1.13355
  Beta  occ. eigenvalues --   -1.13306  -1.13281  -1.13066  -1.13000  -1.12961
  Beta  occ. eigenvalues --   -0.20555  -0.13690  -0.12277
  Beta virt. eigenvalues --   -0.07785  -0.05329  -0.04423  -0.03520  -0.02975
  Beta virt. eigenvalues --   -0.02122  -0.01522  -0.01116  -0.00641   0.00025
  Beta virt. eigenvalues --    0.00365   0.00739   0.00918   0.00951   0.01104

 Mulliken charges and spin densities:
               1          2
     1  Na  -0.811103   0.367696
     2  Na  -0.148296   0.337213
     3  Na  -0.426936   0.206245
     4  Na   1.365990  -0.080979
     5  Na   0.175960   0.053154
     6  Na  -0.076358   0.106664
     7  Na  -0.079257   0.010007
 Sum of Mulliken charges =  -0.00000   1.00000

 Dipole moment (field-independent basis, Debye):
    X=              0.3003    Y=             -0.2208    Z=             -0.1867  Tot=              0.4169
 Quadrupole moment (field-independent basis, Debye-Ang):
   XX=            -58.3299   YY=            -68.3222   ZZ=            -68.7180
   XY=              0.1067   XZ=             -0.4534   YZ=             -1.0982

 Normal termination of Gaussian 16 at Mon Nov 13 19:16:30 2023.
