 Gaussian 16, Revision B.01,
 Gaussian 16:  ES64L-G16RevB.01 20-Dec-2017

 -------------------------
 #P B3LYP/6-311+g(d) force
 -------------------------

 ------------------------------
 Gaussian input prepared by ASE
 ------------------------------
 Symbolic Z-matrix:
 Charge =  0 Multiplicity = 2

                         Standard orientation:
 ---------------------------------------------------------------------
 Center     Atomic      Atomic             Coordinates (Angstroms)
 Number     Number       Type             X           Y           Z
 ---------------------------------------------------------------------
      1         11           0       -2.887856   -0.112020    1.538344
      2         11           0        4.587667   -1.367293   -0.822255
      3         11           0        2.323294    2.804904   -0.251883
      4         11           0        2.587507    0.050263    0.907988
      5         11           0       -0.178491   -1.093265    0.700877
      6         11           0       -2.543619   -1.480773   -1.104571
      7         11           0       -3.888501    1.198185   -0.968500
 ---------------------------------------------------------------------

 SCF Done:  E(UB3LYP) =  -1136.08483589     A.U. after   24 cycles

 The electronic state is 2-A.
 Alpha  occ. eigenvalues --  -38.46001 -38.45986 -38.44383 -38.44376 -38.43582
 Alpha  occ. eigenvalues --  -38.42914 -38.42362  -2.21984  -2.21960  -2.20225
 Alpha  occ. eigenvalues --   -2.20206  -2.19553  -2.18825  -2.18354  -1.15810
 Alpha  occ. eigenvalues --   -1.15670  -1.15636  -1.15600  -1.15559  -1.15538
 Alpha  occ. eigenvalues --   -1.13919  -1.13898  -1.13843  -1.13833  -1.13828
 Alpha  occ. eigenvalues --   -1.13815  -1.13248  -1.13224  -1.13185  -1.12524
 Alpha  occ. eigenvalues --   -1.12500  -1.12442  -1.12069  -1.12010  -1.11950
 Alpha  occ. eigenvalues --   -0.17914  -0.15335  -0.11094  -0.10732
 Alpha virt. eigenvalues --   -0.07231  -0.05805  -0.04679  -0.03120  -0.02995
 Alpha virt. eigenvalues --   -0.02002  -0.01845  -0.01474  -0.01086  -0.00573
 Alpha virt. eigenvalues --   -0.00118  -0.00024   0.00095   0.00308   0.00520

  Beta  occ. eigenvalues --  -38.46004 -38.45985 -38.44288 -38.44273 -38.43568
  Beta  occ. eigenvalues --  -38.42924 -38.42354  -2.21989  -2.21959  -2.20043
  Beta  occ. eigenvalues --   -2.20021  -2.19541  -2.18845  -2.18339  -1.15811
  Beta  occ. eigenvalues --   -1.15669  -1.15633  -1.15609  -1.15565  -1.15539
  Beta  occ. eigenvalues --   -1.13797  -1.13780  -1.13722  -1.13704  -1.13701
  Beta  occ. eigenvalues --   -1.13688  -1.13239  -1.13186  -1.13132  -1.12535
  Beta  occ. eigenvalues --   -1.12513  -1.12453  -1.12067  -1.11996  -1.11938
  Beta  occ. eigenvalues --   -0.17802  -0.14548  -0.10620
  Beta virt. eigenvalues --   -0.07415  -0.06804  -0.05585  -0.04306  -0.02877
  Beta virt. eigenvalues --   -0.02604  -0.01748  -0.01604  -0.01200  -0.00682
  Beta virt. eigenvalues --   -0.00282   0.00056   0.00143   0.00186   0.00441

 Mulliken charges and spin densities:
               1          2
     1  Na   0.943768   0.002601
     2  Na   0.014125   0.632160
     3  Na  -0.144032   0.678610
     4  Na  -0.215479  -0.634722
     5  Na  -1.092949   0.537250
     6  Na   1.052745  -0.076916
     7  Na  -0.558179  -0.138983
 Sum of Mulliken charges =  -0.00000   1.00000

 Dipole moment (field-independent basis, Debye):
    X=             -1.3285    Y=             -0.4337    Z=             -0.3280  Tot=              1.4354
 Quadrupole moment (field-independent basis, Debye-Ang):
   XX=            -73.7504   YY=            -70.3704   ZZ=            -63.0346
   XY=              3.9661   XZ=             -6.4576   YZ=              5.4934

 Normal termination of Gaussian 16 at Mon Nov 13 15:10:06 2023.
