 Gaussian 16, Revision B.01,
 Gaussian 16:  ES64L-G16RevB.01 20-Dec-2017

 -------------------------
 #P B3LYP/6-311+g(d) force
 -------------------------

 ------------------------------
 Gaussian input prepared by ASE
 ------------------------------
 Symbolic Z-matrix:
 Charge =  0 Multiplicity = 2

                         Standard orientation:
 ---------------------------------------------------------------------
 Center     Atomic      Atomic             Coordinates (Angstroms)
 Number     Number       Type             X           Y           Z
 ---------------------------------------------------------------------
      1         11           0       -0.279666   -1.483432   -0.388797
      2         11           0        1.510826   -0.273615    1.687372
      3         11           0        2.686066   -1.387571   -0.835163
      4         11           0        2.751646    1.566904   -0.321378
      5         11           0       -0.230620    1.497013    0.005257
      6         11           0       -3.212668    1.517914   -0.334978
      7         11           0       -3.225584   -1.437214    0.187686
 ---------------------------------------------------------------------

 SCF Done:  E(UB3LYP) =  -1136.09297099     A.U. after   32 cycles

 The electronic state is 2-A.
 Alpha  occ. eigenvalues --  -38.45149 -38.44598 -38.44467 -38.44178 -38.43934
 Alpha  occ. eigenvalues --  -38.43383 -38.43310  -2.21028  -2.20574  -2.20488
 Alpha  occ. eigenvalues --   -2.20177  -2.19945  -2.19446  -2.19373  -1.14730
 Alpha  occ. eigenvalues --   -1.14714  -1.14663  -1.14326  -1.14273  -1.14205
 Alpha  occ. eigenvalues --   -1.14182  -1.14127  -1.14109  -1.13878  -1.13849
 Alpha  occ. eigenvalues --   -1.13805  -1.13632  -1.13581  -1.13526  -1.13230
 Alpha  occ. eigenvalues --   -1.13091  -1.13066  -1.13023  -1.13006  -1.12947
 Alpha  occ. eigenvalues --   -0.19869  -0.15337  -0.11626  -0.10609
 Alpha virt. eigenvalues --   -0.07110  -0.06238  -0.03679  -0.03445  -0.03011
 Alpha virt. eigenvalues --   -0.02088  -0.01502  -0.01373  -0.00643  -0.00333
 Alpha virt. eigenvalues --    0.00068   0.00244   0.00557   0.00607   0.00737

  Beta  occ. eigenvalues --  -38.45145 -38.44582 -38.44401 -38.44138 -38.43878
  Beta  occ. eigenvalues --  -38.43363 -38.43290  -2.21022  -2.20462  -2.20460
  Beta  occ. eigenvalues --   -2.20109  -2.19844  -2.19415  -2.19343  -1.14718
  Beta  occ. eigenvalues --   -1.14712  -1.14651  -1.14262  -1.14166  -1.14159
  Beta  occ. eigenvalues --   -1.14114  -1.14110  -1.14086  -1.13828  -1.13799
  Beta  occ. eigenvalues --   -1.13723  -1.13566  -1.13516  -1.13437  -1.13206
  Beta  occ. eigenvalues --   -1.13065  -1.13019  -1.13009  -1.12954  -1.12922
  Beta  occ. eigenvalues --   -0.19170  -0.14908  -0.11484
  Beta virt. eigenvalues --   -0.06870  -0.06599  -0.06141  -0.03379  -0.03206
  Beta virt. eigenvalues --   -0.02686  -0.01476  -0.01340  -0.00901  -0.00389
  Beta virt. eigenvalues --    0.00030   0.00241   0.00269   0.00588   0.00729

 Mulliken charges and spin densities:
               1          2
     1  Na  -1.623447  -0.267505
     2  Na   0.185495  -0.028047
     3  Na   0.704572   0.792362
     4  Na   0.435475   0.181519
     5  Na  -0.653762   0.075086
     6  Na  -0.016229   0.191669
     7  Na   0.967896   0.054917
 Sum of Mulliken charges =  -0.00000   1.00000

 Dipole moment (field-independent basis, Debye):
    X=             -0.7980    Y=             -0.1867    Z=              0.9279  Tot=              1.2380
 Quadrupole moment (field-independent basis, Debye-Ang):
   XX=            -55.4311   YY=            -73.8738   ZZ=            -69.2205
   XY=              1.5068   XZ=              1.9223   YZ=             -1.8378

 Normal termination of Gaussian 16 at Mon Nov 13 16:28:19 2023.
