 Gaussian 16, Revision B.01,
 Gaussian 16:  ES64L-G16RevB.01 20-Dec-2017

 -------------------------
 #P B3LYP/6-311+g(d) force
 -------------------------

 ------------------------------
 Gaussian input prepared by ASE
 ------------------------------
 Symbolic Z-matrix:
 Charge =  0 Multiplicity = 2

                         Standard orientation:
 ---------------------------------------------------------------------
 Center     Atomic      Atomic             Coordinates (Angstroms)
 Number     Number       Type             X           Y           Z
 ---------------------------------------------------------------------
      1         11           0        2.176602   -1.858839   -0.865973
      2         11           0       -2.055491   -2.000118   -1.598977
      3         11           0       -0.697565   -1.349589    2.671534
      4         11           0       -0.198150   -0.201952   -0.060918
      5         11           0        2.588170    0.815914    0.403578
      6         11           0        0.490227    2.658010   -0.665770
      7         11           0       -2.303794    1.936574    0.116527
 ---------------------------------------------------------------------

 SCF Done:  E(UB3LYP) =  -1136.10768649     A.U. after   20 cycles

 The electronic state is 2-A.
 Alpha  occ. eigenvalues --  -38.44761 -38.44256 -38.44149 -38.43961 -38.43456
 Alpha  occ. eigenvalues --  -38.43300 -38.42234  -2.20597  -2.20073  -2.20036
 Alpha  occ. eigenvalues --   -2.19847  -2.19432  -2.19269  -2.18540  -1.14287
 Alpha  occ. eigenvalues --   -1.14196  -1.14190  -1.13784  -1.13778  -1.13698
 Alpha  occ. eigenvalues --   -1.13685  -1.13679  -1.13656  -1.13600  -1.13494
 Alpha  occ. eigenvalues --   -1.13469  -1.13219  -1.13096  -1.13048  -1.12966
 Alpha  occ. eigenvalues --   -1.12879  -1.12854  -1.12260  -1.12188  -1.12178
 Alpha  occ. eigenvalues --   -0.18752  -0.12754  -0.12621  -0.11393
 Alpha virt. eigenvalues --   -0.05585  -0.04719  -0.04429  -0.03494  -0.02817
 Alpha virt. eigenvalues --   -0.02523  -0.01229  -0.01050  -0.00523   0.00094
 Alpha virt. eigenvalues --    0.00184   0.00414   0.00853   0.00885   0.00964

  Beta  occ. eigenvalues --  -38.44645 -38.44208 -38.44138 -38.43960 -38.43456
  Beta  occ. eigenvalues --  -38.43299 -38.42208  -2.20383  -2.20017  -2.19984
  Beta  occ. eigenvalues --   -2.19847  -2.19432  -2.19269  -2.18506  -1.14140
  Beta  occ. eigenvalues --   -1.14049  -1.14044  -1.13773  -1.13718  -1.13662
  Beta  occ. eigenvalues --   -1.13640  -1.13636  -1.13620  -1.13600  -1.13493
  Beta  occ. eigenvalues --   -1.13460  -1.13220  -1.13099  -1.13033  -1.12966
  Beta  occ. eigenvalues --   -1.12873  -1.12857  -1.12177  -1.12169  -1.12139
  Beta  occ. eigenvalues --   -0.18137  -0.12624  -0.12244
  Beta virt. eigenvalues --   -0.07352  -0.05492  -0.04505  -0.04152  -0.02932
  Beta virt. eigenvalues --   -0.02266  -0.01838  -0.01196  -0.00850  -0.00181
  Beta virt. eigenvalues --    0.00134   0.00252   0.00460   0.00888   0.00946

 Mulliken charges and spin densities:
               1          2
     1  Na   0.269680  -0.022598
     2  Na   0.238249   0.490366
     3  Na   0.151872   0.555953
     4  Na  -1.682188   0.282413
     5  Na   0.563499   0.023916
     6  Na  -0.202997  -0.451852
     7  Na   0.661885   0.121801
 Sum of Mulliken charges =  -0.00000   1.00000

 Dipole moment (field-independent basis, Debye):
    X=             -0.2381    Y=             -0.4158    Z=              0.0670  Tot=              0.4838
 Quadrupole moment (field-independent basis, Debye-Ang):
   XX=            -60.9808   YY=            -64.0185   ZZ=            -67.0871
   XY=             -1.1328   XZ=              0.2521   YZ=              1.1998

 Normal termination of Gaussian 16 at Mon Nov 13 20:09:25 2023.
