 Gaussian 16, Revision B.01,
 Gaussian 16:  ES64L-G16RevB.01 20-Dec-2017

 -------------------------
 #P B3LYP/6-311+g(d) force
 -------------------------

 ------------------------------
 Gaussian input prepared by ASE
 ------------------------------
 Symbolic Z-matrix:
 Charge =  0 Multiplicity = 2

                         Standard orientation:
 ---------------------------------------------------------------------
 Center     Atomic      Atomic             Coordinates (Angstroms)
 Number     Number       Type             X           Y           Z
 ---------------------------------------------------------------------
      1         11           0        0.439693   -0.929826   -0.069183
      2         11           0       -2.107487   -1.531012   -0.909545
      3         11           0        3.311819   -1.250510    0.316933
      4         11           0        2.249526    1.269075   -0.684110
      5         11           0       -0.098702    1.524507    1.035916
      6         11           0       -2.155508   -0.240033    1.524148
      7         11           0       -1.639341    1.157799   -1.214159
 ---------------------------------------------------------------------

 SCF Done:  E(UB3LYP) =  -1136.06941620     A.U. after   22 cycles

 The electronic state is 2-A.
 Alpha  occ. eigenvalues --  -38.44634 -38.44598 -38.44275 -38.44183 -38.44108
 Alpha  occ. eigenvalues --  -38.43776 -38.43235  -2.20782  -2.20510  -2.20346
 Alpha  occ. eigenvalues --   -2.20305  -2.20218  -2.20097  -2.19456  -1.14636
 Alpha  occ. eigenvalues --   -1.14558  -1.14378  -1.14357  -1.14252  -1.14204
 Alpha  occ. eigenvalues --   -1.14163  -1.14119  -1.14101  -1.14011  -1.13950
 Alpha  occ. eigenvalues --   -1.13919  -1.13850  -1.13839  -1.13763  -1.13683
 Alpha  occ. eigenvalues --   -1.13662  -1.13554  -1.13084  -1.13046  -1.12997
 Alpha  occ. eigenvalues --   -0.20944  -0.15017  -0.11863  -0.11561
 Alpha virt. eigenvalues --   -0.06561  -0.05058  -0.03992  -0.03216  -0.02439
 Alpha virt. eigenvalues --   -0.02186  -0.01971  -0.00816  -0.00353   0.00251
 Alpha virt. eigenvalues --    0.00350   0.00544   0.00748   0.00882   0.00906

  Beta  occ. eigenvalues --  -38.44600 -38.44565 -38.44266 -38.44125 -38.44077
  Beta  occ. eigenvalues --  -38.43747 -38.43197  -2.20658  -2.20514  -2.20289
  Beta  occ. eigenvalues --   -2.20248  -2.20163  -2.20053  -2.19394  -1.14578
  Beta  occ. eigenvalues --   -1.14450  -1.14357  -1.14277  -1.14222  -1.14160
  Beta  occ. eigenvalues --   -1.14145  -1.14114  -1.14044  -1.13978  -1.13929
  Beta  occ. eigenvalues --   -1.13838  -1.13835  -1.13800  -1.13705  -1.13611
  Beta  occ. eigenvalues --   -1.13574  -1.13531  -1.13047  -1.12996  -1.12904
  Beta  occ. eigenvalues --   -0.20097  -0.14865  -0.11422
  Beta virt. eigenvalues --   -0.07376  -0.06316  -0.04998  -0.03473  -0.03032
  Beta virt. eigenvalues --   -0.02091  -0.01634  -0.01163  -0.00624  -0.00064
  Beta virt. eigenvalues --    0.00322   0.00358   0.00561   0.00884   0.00906

 Mulliken charges and spin densities:
               1          2
     1  Na  -1.097429   0.894041
     2  Na   0.275443   0.014901
     3  Na   0.403071  -0.300508
     4  Na   0.647393  -0.089213
     5  Na   0.974489   0.164073
     6  Na  -0.376181  -0.145696
     7  Na  -0.826787   0.462401
 Sum of Mulliken charges =  -0.00000   1.00000

 Dipole moment (field-independent basis, Debye):
    X=              0.5413    Y=              0.3001    Z=             -0.0425  Tot=              0.6204
 Quadrupole moment (field-independent basis, Debye-Ang):
   XX=            -51.4812   YY=            -74.2825   ZZ=            -68.9903
   XY=              0.0290   XZ=             -0.1024   YZ=             -2.1240

 Normal termination of Gaussian 16 at Mon Nov 13 18:17:09 2023.
