 Gaussian 16, Revision B.01,
 Gaussian 16:  ES64L-G16RevB.01 20-Dec-2017

 -------------------------
 #P B3LYP/6-311+g(d) force
 -------------------------

 ------------------------------
 Gaussian input prepared by ASE
 ------------------------------
 Symbolic Z-matrix:
 Charge =  0 Multiplicity = 2

                         Standard orientation:
 ---------------------------------------------------------------------
 Center     Atomic      Atomic             Coordinates (Angstroms)
 Number     Number       Type             X           Y           Z
 ---------------------------------------------------------------------
      1         11           0        0.594636    3.177135    0.128374
      2         11           0        2.086598   -2.440300   -1.355980
      3         11           0        3.796565    0.576401    1.078673
      4         11           0        1.269856    0.325088   -0.521154
      5         11           0       -4.126817    1.169553   -0.412843
      6         11           0       -1.626848   -0.465259   -0.612273
      7         11           0       -1.993990   -2.342617    1.695203
 ---------------------------------------------------------------------

 SCF Done:  E(UB3LYP) =  -1136.09461998     A.U. after   33 cycles

 The electronic state is 2-A.
 Alpha  occ. eigenvalues --  -38.45823 -38.45574 -38.44304 -38.44086 -38.43647
 Alpha  occ. eigenvalues --  -38.43559 -38.43190  -2.21606  -2.21380  -2.20079
 Alpha  occ. eigenvalues --   -2.19926  -2.19532  -2.19477  -2.19274  -1.15305
 Alpha  occ. eigenvalues --   -1.15247  -1.15225  -1.15074  -1.15030  -1.14970
 Alpha  occ. eigenvalues --   -1.13834  -1.13754  -1.13692  -1.13641  -1.13549
 Alpha  occ. eigenvalues --   -1.13520  -1.13313  -1.13222  -1.13186  -1.13133
 Alpha  occ. eigenvalues --   -1.13114  -1.13096  -1.12962  -1.12910  -1.12835
 Alpha  occ. eigenvalues --   -0.17424  -0.13994  -0.11790  -0.10222
 Alpha virt. eigenvalues --   -0.07705  -0.05044  -0.04025  -0.03557  -0.02826
 Alpha virt. eigenvalues --   -0.02664  -0.01666  -0.01423  -0.00781  -0.00533
 Alpha virt. eigenvalues --   -0.00249   0.00008   0.00321   0.00554   0.00635

  Beta  occ. eigenvalues --  -38.45800 -38.45522 -38.44350 -38.43979 -38.43614
  Beta  occ. eigenvalues --  -38.43542 -38.43177  -2.21564  -2.21283  -2.20165
  Beta  occ. eigenvalues --   -2.19727  -2.19510  -2.19418  -2.19254  -1.15279
  Beta  occ. eigenvalues --   -1.15217  -1.15190  -1.15010  -1.14962  -1.14905
  Beta  occ. eigenvalues --   -1.13896  -1.13812  -1.13739  -1.13515  -1.13414
  Beta  occ. eigenvalues --   -1.13384  -1.13297  -1.13186  -1.13130  -1.13098
  Beta  occ. eigenvalues --   -1.13072  -1.13055  -1.12936  -1.12889  -1.12818
  Beta  occ. eigenvalues --   -0.17010  -0.13465  -0.11542
  Beta virt. eigenvalues --   -0.07408  -0.06719  -0.04786  -0.03866  -0.03203
  Beta virt. eigenvalues --   -0.02575  -0.02142  -0.01320  -0.01236  -0.00525
  Beta virt. eigenvalues --   -0.00245  -0.00137   0.00094   0.00394   0.00623

 Mulliken charges and spin densities:
               1          2
     1  Na   1.563507  -0.242803
     2  Na   1.915997   0.065005
     3  Na   0.873283   0.156605
     4  Na  -4.325136   0.303772
     5  Na   0.565309   0.154060
     6  Na  -0.700418   0.094993
     7  Na   0.107459   0.468368
 Sum of Mulliken charges =  -0.00000   1.00000

 Dipole moment (field-independent basis, Debye):
    X=             -0.0807    Y=              0.6207    Z=              0.5142  Tot=              0.8101
 Quadrupole moment (field-independent basis, Debye-Ang):
   XX=            -49.5245   YY=            -67.2835   ZZ=            -73.2272
   XY=             -7.7467   XZ=              3.1428   YZ=              0.8078

 Normal termination of Gaussian 16 at Mon Nov 13 18:26:08 2023.
