 Gaussian 16, Revision B.01,
 Gaussian 16:  ES64L-G16RevB.01 20-Dec-2017

 -------------------------
 #P B3LYP/6-311+g(d) force
 -------------------------

 ------------------------------
 Gaussian input prepared by ASE
 ------------------------------
 Symbolic Z-matrix:
 Charge =  0 Multiplicity = 2

                         Standard orientation:
 ---------------------------------------------------------------------
 Center     Atomic      Atomic             Coordinates (Angstroms)
 Number     Number       Type             X           Y           Z
 ---------------------------------------------------------------------
      1         11           0        2.223226   -0.479635    1.342615
      2         11           0        2.211171    0.935948   -1.299126
      3         11           0       -2.134756    3.019460   -0.424413
      4         11           0        0.253032    1.719184    0.840389
      5         11           0        1.346113   -1.933262   -1.124463
      6         11           0       -0.673707   -1.140265    0.951376
      7         11           0       -3.225079   -2.121431   -0.286378
 ---------------------------------------------------------------------

 SCF Done:  E(UB3LYP) =  -1136.09932201     A.U. after   26 cycles

 The electronic state is 2-A.
 Alpha  occ. eigenvalues --  -38.44519 -38.44515 -38.44481 -38.44427 -38.44060
 Alpha  occ. eigenvalues --  -38.43082 -38.43031  -2.20510  -2.20465  -2.20308
 Alpha  occ. eigenvalues --   -2.20219  -2.20169  -2.19161  -2.19103  -1.14323
 Alpha  occ. eigenvalues --   -1.14223  -1.14187  -1.14140  -1.14096  -1.14017
 Alpha  occ. eigenvalues --   -1.14004  -1.13951  -1.13939  -1.13927  -1.13879
 Alpha  occ. eigenvalues --   -1.13864  -1.13848  -1.13793  -1.13742  -1.12942
 Alpha  occ. eigenvalues --   -1.12826  -1.12786  -1.12759  -1.12724  -1.12676
 Alpha  occ. eigenvalues --   -0.19655  -0.13019  -0.12569  -0.11314
 Alpha virt. eigenvalues --   -0.06591  -0.05541  -0.03626  -0.03270  -0.03010
 Alpha virt. eigenvalues --   -0.02274  -0.01588  -0.01255  -0.00313  -0.00107
 Alpha virt. eigenvalues --    0.00017   0.00188   0.00312   0.00702   0.00822

  Beta  occ. eigenvalues --  -38.44519 -38.44464 -38.44440 -38.44424 -38.44001
  Beta  occ. eigenvalues --  -38.43044 -38.43000  -2.20419  -2.20392  -2.20308
  Beta  occ. eigenvalues --   -2.20213  -2.20069  -2.19099  -2.19053  -1.14272
  Beta  occ. eigenvalues --   -1.14140  -1.14123  -1.14079  -1.14043  -1.14017
  Beta  occ. eigenvalues --   -1.13949  -1.13939  -1.13935  -1.13922  -1.13857
  Beta  occ. eigenvalues --   -1.13844  -1.13796  -1.13727  -1.13643  -1.12894
  Beta  occ. eigenvalues --   -1.12793  -1.12739  -1.12700  -1.12658  -1.12616
  Beta  occ. eigenvalues --   -0.18808  -0.12823  -0.12433
  Beta virt. eigenvalues --   -0.07082  -0.06460  -0.05318  -0.03530  -0.02776
  Beta virt. eigenvalues --   -0.02508  -0.01661  -0.01191  -0.01108  -0.00084
  Beta virt. eigenvalues --    0.00046   0.00103   0.00292   0.00384   0.00738

 Mulliken charges and spin densities:
               1          2
     1  Na   2.063054  -0.190750
     2  Na  -0.470476   0.207200
     3  Na  -0.179061  -0.131614
     4  Na  -0.371782   0.539793
     5  Na  -0.667066   0.331379
     6  Na  -0.564834   0.183909
     7  Na   0.190165   0.060083
 Sum of Mulliken charges =  -0.00000   1.00000

 Dipole moment (field-independent basis, Debye):
    X=             -0.1647    Y=             -0.1314    Z=             -0.7705  Tot=              0.7988
 Quadrupole moment (field-independent basis, Debye-Ang):
   XX=            -55.7483   YY=            -66.8587   ZZ=            -70.8682
   XY=             -1.2470   XZ=              3.7460   YZ=             -0.6237

 Normal termination of Gaussian 16 at Mon Nov 13 18:45:58 2023.
