 Gaussian 16, Revision B.01,
 Gaussian 16:  ES64L-G16RevB.01 20-Dec-2017

 -------------------------
 #P B3LYP/6-311+g(d) force
 -------------------------

 ------------------------------
 Gaussian input prepared by ASE
 ------------------------------
 Symbolic Z-matrix:
 Charge =  0 Multiplicity = 2

                         Standard orientation:
 ---------------------------------------------------------------------
 Center     Atomic      Atomic             Coordinates (Angstroms)
 Number     Number       Type             X           Y           Z
 ---------------------------------------------------------------------
      1         11           0       -0.313114   -0.078408    1.838399
      2         11           0       -1.405804    0.443506   -1.741198
      3         11           0       -2.889917   -0.882916    0.512472
      4         11           0       -0.302821   -2.027215   -0.444487
      5         11           0       -0.616302    2.492479    0.312335
      6         11           0        1.369339    0.447763   -0.592469
      7         11           0        4.158620   -0.395210    0.114949
 ---------------------------------------------------------------------

 SCF Done:  E(UB3LYP) =  -1136.09576977     A.U. after   23 cycles

 The electronic state is 2-A.
 Alpha  occ. eigenvalues --  -38.45330 -38.44487 -38.44317 -38.43891 -38.43476
 Alpha  occ. eigenvalues --  -38.42903 -38.42412  -2.21106  -2.20477  -2.20420
 Alpha  occ. eigenvalues --   -2.20011  -2.19540  -2.19069  -2.18417  -1.14812
 Alpha  occ. eigenvalues --   -1.14753  -1.14736  -1.14274  -1.14198  -1.14145
 Alpha  occ. eigenvalues --   -1.14093  -1.14037  -1.13963  -1.13765  -1.13629
 Alpha  occ. eigenvalues --   -1.13617  -1.13280  -1.13179  -1.13119  -1.12785
 Alpha  occ. eigenvalues --   -1.12727  -1.12669  -1.12106  -1.12066  -1.12026
 Alpha  occ. eigenvalues --   -0.20468  -0.13416  -0.12013  -0.11891
 Alpha virt. eigenvalues --   -0.07143  -0.03698  -0.03534  -0.03350  -0.02916
 Alpha virt. eigenvalues --   -0.02711  -0.02443  -0.00724  -0.00447   0.00052
 Alpha virt. eigenvalues --    0.00334   0.00392   0.00467   0.00868   0.01094

  Beta  occ. eigenvalues --  -38.45346 -38.44467 -38.44224 -38.43808 -38.43449
  Beta  occ. eigenvalues --  -38.42876 -38.42401  -2.21136  -2.20446  -2.20253
  Beta  occ. eigenvalues --   -2.19861  -2.19499  -2.19027  -2.18402  -1.14833
  Beta  occ. eigenvalues --   -1.14772  -1.14756  -1.14235  -1.14130  -1.14070
  Beta  occ. eigenvalues --   -1.14039  -1.13915  -1.13861  -1.13658  -1.13530
  Beta  occ. eigenvalues --   -1.13508  -1.13253  -1.13107  -1.13082  -1.12770
  Beta  occ. eigenvalues --   -1.12657  -1.12630  -1.12098  -1.12028  -1.12008
  Beta  occ. eigenvalues --   -0.19567  -0.13311  -0.11640
  Beta virt. eigenvalues --   -0.07640  -0.06993  -0.03711  -0.03363  -0.02790
  Beta virt. eigenvalues --   -0.02450  -0.01970  -0.01644  -0.00646  -0.00214
  Beta virt. eigenvalues --    0.00088   0.00317   0.00422   0.00638   0.00911

 Mulliken charges and spin densities:
               1          2
     1  Na   0.471628   0.765799
     2  Na   0.653701   0.327434
     3  Na  -0.011991  -0.085774
     4  Na  -0.287905  -0.017100
     5  Na  -0.968316  -0.273786
     6  Na  -0.174179   0.386724
     7  Na   0.317063  -0.103297
 Sum of Mulliken charges =  -0.00000   1.00000

 Dipole moment (field-independent basis, Debye):
    X=              0.2689    Y=             -0.0732    Z=              0.3323  Tot=              0.4337
 Quadrupole moment (field-independent basis, Debye-Ang):
   XX=            -49.1237   YY=            -73.6037   ZZ=            -69.0989
   XY=             -1.5910   XZ=              1.2638   YZ=              0.4966

 Normal termination of Gaussian 16 at Mon Nov 13 19:15:12 2023.
