 Gaussian 16, Revision B.01,
 Gaussian 16:  ES64L-G16RevB.01 20-Dec-2017

 -------------------------
 #P B3LYP/6-311+g(d) force
 -------------------------

 ------------------------------
 Gaussian input prepared by ASE
 ------------------------------
 Symbolic Z-matrix:
 Charge =  0 Multiplicity = 2

                         Standard orientation:
 ---------------------------------------------------------------------
 Center     Atomic      Atomic             Coordinates (Angstroms)
 Number     Number       Type             X           Y           Z
 ---------------------------------------------------------------------
      1         11           0        0.018624    3.094969    0.097391
      2         11           0       -0.861233   -2.421961    1.339482
      3         11           0       -3.796571    0.444652   -0.705980
      4         11           0       -1.277054    0.521746    0.918787
      5         11           0        0.638431   -2.407678   -1.259515
      6         11           0        1.238804    0.483884   -0.723099
      7         11           0        4.039000    0.284387    0.332934
 ---------------------------------------------------------------------

 SCF Done:  E(UB3LYP) =  -1136.09758109     A.U. after   28 cycles

 The electronic state is 2-A.
 Alpha  occ. eigenvalues --  -38.45048 -38.44709 -38.44477 -38.43881 -38.43634
 Alpha  occ. eigenvalues --  -38.43402 -38.43230  -2.20919  -2.20517  -2.20373
 Alpha  occ. eigenvalues --   -2.19786  -2.19490  -2.19476  -2.19309  -1.14650
 Alpha  occ. eigenvalues --   -1.14611  -1.14524  -1.14208  -1.14158  -1.14131
 Alpha  occ. eigenvalues --   -1.14083  -1.14003  -1.13980  -1.13554  -1.13452
 Alpha  occ. eigenvalues --   -1.13391  -1.13243  -1.13196  -1.13150  -1.13109
 Alpha  occ. eigenvalues --   -1.13088  -1.13084  -1.12941  -1.12927  -1.12901
 Alpha  occ. eigenvalues --   -0.18516  -0.13345  -0.13083  -0.09993
 Alpha virt. eigenvalues --   -0.07350  -0.05278  -0.04071  -0.03222  -0.02968
 Alpha virt. eigenvalues --   -0.02656  -0.01435  -0.01289  -0.00554  -0.00320
 Alpha virt. eigenvalues --   -0.00108  -0.00027   0.00248   0.00529   0.00964

  Beta  occ. eigenvalues --  -38.45056 -38.44657 -38.44460 -38.43853 -38.43520
  Beta  occ. eigenvalues --  -38.43399 -38.43216  -2.20936  -2.20421  -2.20341
  Beta  occ. eigenvalues --   -2.19735  -2.19478  -2.19296  -2.19273  -1.14665
  Beta  occ. eigenvalues --   -1.14610  -1.14538  -1.14147  -1.14091  -1.14063
  Beta  occ. eigenvalues --   -1.14063  -1.13984  -1.13955  -1.13517  -1.13420
  Beta  occ. eigenvalues --   -1.13357  -1.13199  -1.13153  -1.13098  -1.13078
  Beta  occ. eigenvalues --   -1.12967  -1.12950  -1.12922  -1.12910  -1.12821
  Beta  occ. eigenvalues --   -0.18201  -0.12832  -0.12533
  Beta virt. eigenvalues --   -0.07137  -0.06488  -0.05075  -0.04032  -0.02791
  Beta virt. eigenvalues --   -0.02636  -0.02182  -0.01328  -0.01045  -0.00197
  Beta virt. eigenvalues --   -0.00125   0.00128   0.00191   0.00507   0.00583

 Mulliken charges and spin densities:
               1          2
     1  Na   0.512995   0.054612
     2  Na   0.056797   0.034348
     3  Na  -0.054107   0.386128
     4  Na  -0.251214   0.175166
     5  Na   0.206908  -0.039028
     6  Na  -0.484991   0.172623
     7  Na   0.013613   0.216152
 Sum of Mulliken charges =  -0.00000   1.00000

 Dipole moment (field-independent basis, Debye):
    X=              1.0504    Y=             -0.6048    Z=              0.5283  Tot=              1.3223
 Quadrupole moment (field-independent basis, Debye-Ang):
   XX=            -75.4087   YY=            -61.9512   ZZ=            -64.6713
   XY=              1.7173   XZ=              2.4731   YZ=             -0.0628

 Normal termination of Gaussian 16 at Mon Nov 13 18:43:16 2023.
