 Gaussian 16, Revision B.01,
 Gaussian 16:  ES64L-G16RevB.01 20-Dec-2017

 -------------------------
 #P B3LYP/6-311+g(d) force
 -------------------------

 ------------------------------
 Gaussian input prepared by ASE
 ------------------------------
 Symbolic Z-matrix:
 Charge =  0 Multiplicity = 2

                         Standard orientation:
 ---------------------------------------------------------------------
 Center     Atomic      Atomic             Coordinates (Angstroms)
 Number     Number       Type             X           Y           Z
 ---------------------------------------------------------------------
      1         11           0        3.873209   -0.463341    1.009918
      2         11           0        0.809837    3.451853   -0.076686
      3         11           0        2.064812    0.877896   -0.970264
      4         11           0        1.563206   -1.969069   -0.163670
      5         11           0       -1.351954   -2.580658    0.196512
      6         11           0       -2.919448   -0.414210   -1.167324
      7         11           0       -4.039662    1.097529    1.171514
 ---------------------------------------------------------------------

 SCF Done:  E(UB3LYP) =  -1136.10146320     A.U. after   19 cycles

 The electronic state is 2-A.
 Alpha  occ. eigenvalues --  -38.44760 -38.44611 -38.44534 -38.43891 -38.43785
 Alpha  occ. eigenvalues --  -38.43649 -38.43605  -2.20677  -2.20485  -2.20361
 Alpha  occ. eigenvalues --   -2.19787  -2.19760  -2.19621  -2.19422  -1.14378
 Alpha  occ. eigenvalues --   -1.14321  -1.14284  -1.14247  -1.14196  -1.14118
 Alpha  occ. eigenvalues --   -1.13988  -1.13979  -1.13949  -1.13557  -1.13513
 Alpha  occ. eigenvalues --   -1.13440  -1.13436  -1.13421  -1.13400  -1.13270
 Alpha  occ. eigenvalues --   -1.13246  -1.13214  -1.13060  -1.13057  -1.13042
 Alpha  occ. eigenvalues --   -0.17385  -0.14746  -0.12299  -0.10778
 Alpha virt. eigenvalues --   -0.05892  -0.05693  -0.04293  -0.04052  -0.02500
 Alpha virt. eigenvalues --   -0.02317  -0.01874  -0.01293  -0.00927  -0.00573
 Alpha virt. eigenvalues --   -0.00281   0.00074   0.00409   0.00500   0.00732

  Beta  occ. eigenvalues --  -38.44688 -38.44609 -38.44459 -38.43859 -38.43773
  Beta  occ. eigenvalues --  -38.43643 -38.43562  -2.20544  -2.20488  -2.20223
  Beta  occ. eigenvalues --   -2.19746  -2.19730  -2.19619  -2.19346  -1.14293
  Beta  occ. eigenvalues --   -1.14232  -1.14210  -1.14190  -1.14190  -1.14117
  Beta  occ. eigenvalues --   -1.13893  -1.13886  -1.13872  -1.13539  -1.13479
  Beta  occ. eigenvalues --   -1.13428  -1.13400  -1.13379  -1.13361  -1.13270
  Beta  occ. eigenvalues --   -1.13248  -1.13156  -1.13009  -1.13003  -1.12992
  Beta  occ. eigenvalues --   -0.16913  -0.14084  -0.11519
  Beta virt. eigenvalues --   -0.07603  -0.05743  -0.05323  -0.04065  -0.03810
  Beta virt. eigenvalues --   -0.02123  -0.01909  -0.01536  -0.00888  -0.00731
  Beta virt. eigenvalues --   -0.00454  -0.00125   0.00277   0.00526   0.00545

 Mulliken charges and spin densities:
               1          2
     1  Na   0.605340   0.364326
     2  Na  -0.063247   0.161040
     3  Na   0.102538  -0.094611
     4  Na  -0.528303   0.160312
     5  Na   0.041613  -0.037169
     6  Na   0.114604   0.129160
     7  Na  -0.272544   0.316942
 Sum of Mulliken charges =  -0.00000   1.00000

 Dipole moment (field-independent basis, Debye):
    X=              0.0209    Y=             -0.1324    Z=              0.9495  Tot=              0.9589
 Quadrupole moment (field-independent basis, Debye-Ang):
   XX=            -65.0908   YY=            -72.2216   ZZ=            -64.0738
   XY=             -0.4165   XZ=              1.7897   YZ=              2.7019

 Normal termination of Gaussian 16 at Mon Nov 13 14:50:14 2023.
