 Gaussian 16, Revision B.01,
 Gaussian 16:  ES64L-G16RevB.01 20-Dec-2017

 -------------------------
 #P B3LYP/6-311+g(d) force
 -------------------------

 ------------------------------
 Gaussian input prepared by ASE
 ------------------------------
 Symbolic Z-matrix:
 Charge =  0 Multiplicity = 2

                         Standard orientation:
 ---------------------------------------------------------------------
 Center     Atomic      Atomic             Coordinates (Angstroms)
 Number     Number       Type             X           Y           Z
 ---------------------------------------------------------------------
      1         11           0        0.616572   -0.316814   -0.937120
      2         11           0        0.453266    2.644987   -1.386353
      3         11           0        3.388666   -1.176187   -0.183093
      4         11           0        1.501921   -0.187668    1.925631
      5         11           0       -0.863375    1.415985    1.010360
      6         11           0       -3.352276   -0.207439    0.586279
      7         11           0       -1.744773   -2.172863   -1.015704
 ---------------------------------------------------------------------

 SCF Done:  E(UB3LYP) =  -1136.10157565     A.U. after   27 cycles

 The electronic state is 2-A.
 Alpha  occ. eigenvalues --  -38.44815 -38.44471 -38.44439 -38.43869 -38.43396
 Alpha  occ. eigenvalues --  -38.43338 -38.43037  -2.20694  -2.20425  -2.20348
 Alpha  occ. eigenvalues --   -2.19756  -2.19528  -2.19308  -2.19117  -1.14398
 Alpha  occ. eigenvalues --   -1.14364  -1.14320  -1.14198  -1.14165  -1.14042
 Alpha  occ. eigenvalues --   -1.14013  -1.13959  -1.13917  -1.13516  -1.13385
 Alpha  occ. eigenvalues --   -1.13373  -1.13274  -1.13224  -1.13139  -1.12998
 Alpha  occ. eigenvalues --   -1.12929  -1.12907  -1.12809  -1.12738  -1.12685
 Alpha  occ. eigenvalues --   -0.19256  -0.13810  -0.12004  -0.11593
 Alpha virt. eigenvalues --   -0.06507  -0.04837  -0.03672  -0.03455  -0.03046
 Alpha virt. eigenvalues --   -0.02631  -0.02008  -0.00681  -0.00433   0.00034
 Alpha virt. eigenvalues --    0.00231   0.00346   0.00712   0.00945   0.00988

  Beta  occ. eigenvalues --  -38.44808 -38.44475 -38.44372 -38.43846 -38.43353
  Beta  occ. eigenvalues --  -38.43287 -38.43002  -2.20683  -2.20362  -2.20300
  Beta  occ. eigenvalues --   -2.19716  -2.19441  -2.19229  -2.19059  -1.14383
  Beta  occ. eigenvalues --   -1.14359  -1.14308  -1.14160  -1.14085  -1.14030
  Beta  occ. eigenvalues --   -1.13978  -1.13921  -1.13869  -1.13475  -1.13359
  Beta  occ. eigenvalues --   -1.13342  -1.13216  -1.13135  -1.13077  -1.12947
  Beta  occ. eigenvalues --   -1.12859  -1.12855  -1.12766  -1.12698  -1.12612
  Beta  occ. eigenvalues --   -0.18509  -0.13667  -0.11724
  Beta virt. eigenvalues --   -0.07632  -0.06199  -0.04485  -0.03518  -0.02980
  Beta virt. eigenvalues --   -0.02572  -0.01989  -0.01669  -0.00571  -0.00140
  Beta virt. eigenvalues --    0.00155   0.00286   0.00410   0.00799   0.01002

 Mulliken charges and spin densities:
               1          2
     1  Na  -2.437878   0.003690
     2  Na   0.295866   0.122017
     3  Na   0.909269   0.147367
     4  Na  -0.367460   0.204724
     5  Na   1.711991   0.378217
     6  Na  -0.827255  -0.080711
     7  Na   0.715468   0.224696
 Sum of Mulliken charges =  -0.00000   1.00000

 Dipole moment (field-independent basis, Debye):
    X=              0.2073    Y=             -0.0465    Z=              0.0709  Tot=              0.2240
 Quadrupole moment (field-independent basis, Debye-Ang):
   XX=            -54.3556   YY=            -70.6055   ZZ=            -68.6432
   XY=             -1.4443   XZ=             -2.6169   YZ=             -0.4169

 Normal termination of Gaussian 16 at Mon Nov 13 15:29:22 2023.
