 Gaussian 16, Revision B.01,
 Gaussian 16:  ES64L-G16RevB.01 20-Dec-2017

 -------------------------
 #P B3LYP/6-311+g(d) force
 -------------------------

 ------------------------------
 Gaussian input prepared by ASE
 ------------------------------
 Symbolic Z-matrix:
 Charge =  0 Multiplicity = 2

                         Standard orientation:
 ---------------------------------------------------------------------
 Center     Atomic      Atomic             Coordinates (Angstroms)
 Number     Number       Type             X           Y           Z
 ---------------------------------------------------------------------
      1         11           0        0.917984   -0.086840    1.561476
      2         11           0        1.038611   -1.375732   -1.144310
      3         11           0        3.502686   -0.145255    0.039972
      4         11           0        1.251068    1.607316   -0.883623
      5         11           0       -1.412822    1.481154    0.505206
      6         11           0       -1.480943   -1.520740    0.485465
      7         11           0       -3.816583    0.040097   -0.564185
 ---------------------------------------------------------------------

 SCF Done:  E(UB3LYP) =  -1136.08622501     A.U. after   27 cycles

 The electronic state is 2-A.
 Alpha  occ. eigenvalues --  -38.45775 -38.45224 -38.43971 -38.43779 -38.43468
 Alpha  occ. eigenvalues --  -38.43003 -38.42846  -2.21746  -2.21121  -2.20035
 Alpha  occ. eigenvalues --   -2.19992  -2.19536  -2.19077  -2.18922  -1.15466
 Alpha  occ. eigenvalues --   -1.15416  -1.15353  -1.14814  -1.14762  -1.14733
 Alpha  occ. eigenvalues --   -1.13885  -1.13743  -1.13696  -1.13688  -1.13628
 Alpha  occ. eigenvalues --   -1.13511  -1.13233  -1.13171  -1.13147  -1.12832
 Alpha  occ. eigenvalues --   -1.12733  -1.12717  -1.12609  -1.12557  -1.12497
 Alpha  occ. eigenvalues --   -0.20469  -0.15291  -0.11309  -0.11182
 Alpha virt. eigenvalues --   -0.07766  -0.04566  -0.04312  -0.03212  -0.02976
 Alpha virt. eigenvalues --   -0.01982  -0.01791  -0.00793  -0.00706  -0.00190
 Alpha virt. eigenvalues --    0.00185   0.00305   0.00404   0.00834   0.00917

  Beta  occ. eigenvalues --  -38.45757 -38.45170 -38.43953 -38.43690 -38.43449
  Beta  occ. eigenvalues --  -38.42980 -38.42823  -2.21717  -2.21019  -2.20004
  Beta  occ. eigenvalues --   -2.19838  -2.19505  -2.19044  -2.18890  -1.15453
  Beta  occ. eigenvalues --   -1.15365  -1.15336  -1.14752  -1.14691  -1.14661
  Beta  occ. eigenvalues --   -1.13839  -1.13671  -1.13655  -1.13608  -1.13543
  Beta  occ. eigenvalues --   -1.13410  -1.13211  -1.13152  -1.13088  -1.12807
  Beta  occ. eigenvalues --   -1.12715  -1.12641  -1.12568  -1.12496  -1.12482
  Beta  occ. eigenvalues --   -0.19757  -0.14732  -0.10962
  Beta virt. eigenvalues --   -0.07582  -0.07370  -0.04402  -0.03634  -0.02994
  Beta virt. eigenvalues --   -0.02824  -0.01463  -0.01127  -0.00609  -0.00381
  Beta virt. eigenvalues --   -0.00068   0.00284   0.00361   0.00569   0.00898

 Mulliken charges and spin densities:
               1          2
     1  Na  -0.620636   0.106510
     2  Na  -0.455635   0.107760
     3  Na   0.981900   0.197539
     4  Na  -0.486943   0.106678
     5  Na   0.203188   0.163397
     6  Na   0.519389   0.196027
     7  Na  -0.141261   0.122088
 Sum of Mulliken charges =  -0.00000   1.00000

 Dipole moment (field-independent basis, Debye):
    X=              0.6267    Y=             -0.0665    Z=              0.1483  Tot=              0.6474
 Quadrupole moment (field-independent basis, Debye-Ang):
   XX=            -46.5350   YY=            -81.1166   ZZ=            -67.3959
   XY=             -0.1431   XZ=              3.5768   YZ=             -0.5215

 Normal termination of Gaussian 16 at Mon Nov 13 18:05:43 2023.
