 Gaussian 16, Revision B.01,
 Gaussian 16:  ES64L-G16RevB.01 20-Dec-2017

 -------------------------
 #P B3LYP/6-311+g(d) force
 -------------------------

 ------------------------------
 Gaussian input prepared by ASE
 ------------------------------
 Symbolic Z-matrix:
 Charge =  0 Multiplicity = 2

                         Standard orientation:
 ---------------------------------------------------------------------
 Center     Atomic      Atomic             Coordinates (Angstroms)
 Number     Number       Type             X           Y           Z
 ---------------------------------------------------------------------
      1         11           0        2.504308    0.822030   -0.314498
      2         11           0        0.108071    0.120943    1.671926
      3         11           0       -0.025356    2.520729    0.066442
      4         11           0       -2.594471    0.872866   -0.111408
      5         11           0       -1.605480   -2.024419   -0.072647
      6         11           0        0.153977   -0.291195   -1.541600
      7         11           0        1.458951   -2.020954    0.301785
 ---------------------------------------------------------------------

 SCF Done:  E(UB3LYP) =  -1136.10900414     A.U. after   18 cycles

 The electronic state is 2-A.
 Alpha  occ. eigenvalues --  -38.43519 -38.43517 -38.43447 -38.43381 -38.43366
 Alpha  occ. eigenvalues --  -38.43359 -38.43292  -2.19633  -2.19563  -2.19557
 Alpha  occ. eigenvalues --   -2.19524  -2.19491  -2.19413  -2.19324  -1.13620
 Alpha  occ. eigenvalues --   -1.13523  -1.13420  -1.13381  -1.13288  -1.13260
 Alpha  occ. eigenvalues --   -1.13253  -1.13210  -1.13155  -1.13151  -1.13136
 Alpha  occ. eigenvalues --   -1.13110  -1.13098  -1.13051  -1.13049  -1.13015
 Alpha  occ. eigenvalues --   -1.12991  -1.12966  -1.12945  -1.12921  -1.12894
 Alpha  occ. eigenvalues --   -0.20878  -0.13549  -0.13264  -0.11395
 Alpha virt. eigenvalues --   -0.05015  -0.04687  -0.04575  -0.03221  -0.03101
 Alpha virt. eigenvalues --   -0.02342  -0.01077  -0.00836   0.00016   0.00344
 Alpha virt. eigenvalues --    0.00435   0.00506   0.01005   0.01059   0.01077

  Beta  occ. eigenvalues --  -38.43511 -38.43504 -38.43429 -38.43370 -38.43287
  Beta  occ. eigenvalues --  -38.43281 -38.43271  -2.19551  -2.19518  -2.19486
  Beta  occ. eigenvalues --   -2.19470  -2.19398  -2.19396  -2.19309  -1.13570
  Beta  occ. eigenvalues --   -1.13460  -1.13352  -1.13297  -1.13253  -1.13245
  Beta  occ. eigenvalues --   -1.13221  -1.13167  -1.13122  -1.13106  -1.13081
  Beta  occ. eigenvalues --   -1.13075  -1.13031  -1.12995  -1.12981  -1.12962
  Beta  occ. eigenvalues --   -1.12955  -1.12932  -1.12914  -1.12892  -1.12854
  Beta  occ. eigenvalues --   -0.20115  -0.13215  -0.12928
  Beta virt. eigenvalues --   -0.07281  -0.05027  -0.04672  -0.04572  -0.02334
  Beta virt. eigenvalues --   -0.02207  -0.01263  -0.01000  -0.00778   0.00139
  Beta virt. eigenvalues --    0.00367   0.00399   0.00457   0.01037   0.01063

 Mulliken charges and spin densities:
               1          2
     1  Na   0.383649   0.006038
     2  Na  -0.728528   0.529760
     3  Na   0.360446   0.008859
     4  Na  -0.006016  -0.053791
     5  Na   0.342838  -0.005520
     6  Na  -0.921465   0.465022
     7  Na   0.569076   0.049631
 Sum of Mulliken charges =  -0.00000   1.00000

 Dipole moment (field-independent basis, Debye):
    X=             -0.1449    Y=              0.1026    Z=              0.0720  Tot=              0.1916
 Quadrupole moment (field-independent basis, Debye-Ang):
   XX=            -59.4686   YY=            -63.2468   ZZ=            -72.5019
   XY=              0.1254   XZ=              0.0516   YZ=             -0.8762

 Normal termination of Gaussian 16 at Mon Nov 13 18:06:52 2023.
