 Gaussian 16, Revision B.01,
 Gaussian 16:  ES64L-G16RevB.01 20-Dec-2017

 -------------------------
 #P B3LYP/6-311+g(d) force
 -------------------------

 ------------------------------
 Gaussian input prepared by ASE
 ------------------------------
 Symbolic Z-matrix:
 Charge =  0 Multiplicity = 2

                         Standard orientation:
 ---------------------------------------------------------------------
 Center     Atomic      Atomic             Coordinates (Angstroms)
 Number     Number       Type             X           Y           Z
 ---------------------------------------------------------------------
      1         11           0        1.660884   -1.515724   -0.104151
      2         11           0       -0.677228   -0.838857    1.638762
      3         11           0       -1.123127   -2.185626   -1.002278
      4         11           0       -2.993227   -0.025433   -0.086929
      5         11           0       -1.601833    2.604501   -0.509755
      6         11           0        0.969359    1.356873    0.415592
      7         11           0        3.765172    0.604265   -0.351241
 ---------------------------------------------------------------------

 SCF Done:  E(UB3LYP) =  -1136.10226548     A.U. after   22 cycles

 The electronic state is 2-A.
 Alpha  occ. eigenvalues --  -38.44608 -38.44558 -38.43869 -38.43815 -38.43720
 Alpha  occ. eigenvalues --  -38.43612 -38.43408  -2.20538  -2.20504  -2.19880
 Alpha  occ. eigenvalues --   -2.19752  -2.19732  -2.19702  -2.19479  -1.14262
 Alpha  occ. eigenvalues --   -1.14221  -1.14208  -1.14194  -1.14172  -1.14120
 Alpha  occ. eigenvalues --   -1.13728  -1.13597  -1.13535  -1.13489  -1.13458
 Alpha  occ. eigenvalues --   -1.13421  -1.13403  -1.13372  -1.13330  -1.13320
 Alpha  occ. eigenvalues --   -1.13307  -1.13224  -1.13127  -1.13101  -1.13069
 Alpha  occ. eigenvalues --   -0.19695  -0.14509  -0.12695  -0.10579
 Alpha virt. eigenvalues --   -0.06758  -0.05260  -0.04299  -0.03593  -0.02629
 Alpha virt. eigenvalues --   -0.02235  -0.01587  -0.01035  -0.00385  -0.00130
 Alpha virt. eigenvalues --   -0.00017   0.00245   0.00606   0.00768   0.00886

  Beta  occ. eigenvalues --  -38.44581 -38.44531 -38.43866 -38.43800 -38.43692
  Beta  occ. eigenvalues --  -38.43527 -38.43381  -2.20492  -2.20454  -2.19859
  Beta  occ. eigenvalues --   -2.19750  -2.19655  -2.19578  -2.19438  -1.14232
  Beta  occ. eigenvalues --   -1.14193  -1.14170  -1.14142  -1.14135  -1.14080
  Beta  occ. eigenvalues --   -1.13681  -1.13573  -1.13495  -1.13482  -1.13406
  Beta  occ. eigenvalues --   -1.13395  -1.13363  -1.13317  -1.13287  -1.13269
  Beta  occ. eigenvalues --   -1.13225  -1.13144  -1.13098  -1.13060  -1.13006
  Beta  occ. eigenvalues --   -0.19015  -0.14083  -0.12538
  Beta virt. eigenvalues --   -0.06808  -0.06509  -0.05035  -0.04192  -0.02905
  Beta virt. eigenvalues --   -0.02149  -0.02020  -0.00965  -0.00830  -0.00283
  Beta virt. eigenvalues --    0.00058   0.00164   0.00316   0.00742   0.00865

 Mulliken charges and spin densities:
               1          2
     1  Na  -0.458052   0.257576
     2  Na   0.859263   0.036510
     3  Na   0.268217   0.032583
     4  Na  -0.550198   0.596714
     5  Na   0.958014  -0.339468
     6  Na  -1.900674   0.395379
     7  Na   0.823431   0.020705
 Sum of Mulliken charges =  -0.00000   1.00000

 Dipole moment (field-independent basis, Debye):
    X=              0.2930    Y=              0.0707    Z=              0.1171  Tot=              0.3233
 Quadrupole moment (field-independent basis, Debye-Ang):
   XX=            -56.6678   YY=            -68.4369   ZZ=            -72.0993
   XY=              0.6351   XZ=             -1.6637   YZ=             -0.8416

 Normal termination of Gaussian 16 at Mon Nov 13 16:40:05 2023.
