 Gaussian 16, Revision B.01,
 Gaussian 16:  ES64L-G16RevB.01 20-Dec-2017

 -------------------------
 #P B3LYP/6-311+g(d) force
 -------------------------

 ------------------------------
 Gaussian input prepared by ASE
 ------------------------------
 Symbolic Z-matrix:
 Charge =  0 Multiplicity = 2

                         Standard orientation:
 ---------------------------------------------------------------------
 Center     Atomic      Atomic             Coordinates (Angstroms)
 Number     Number       Type             X           Y           Z
 ---------------------------------------------------------------------
      1         11           0       -2.093969   -0.189372   -2.287144
      2         11           0       -0.221862    2.984384   -0.435578
      3         11           0       -0.505021   -2.956941    0.359303
      4         11           0       -1.861918    0.380588    2.464315
      5         11           0       -0.171093    0.009988    0.012607
      6         11           0        2.371273   -0.451291   -1.508311
      7         11           0        2.482590    0.222644    1.394808
 ---------------------------------------------------------------------

 SCF Done:  E(UB3LYP) =  -1136.10808744     A.U. after   28 cycles

 The electronic state is 2-A.
 Alpha  occ. eigenvalues --  -38.45129 -38.44970 -38.43915 -38.43895 -38.43295
 Alpha  occ. eigenvalues --  -38.43272 -38.41766  -2.20952  -2.20792  -2.19817
 Alpha  occ. eigenvalues --   -2.19787  -2.19109  -2.19087  -2.18096  -1.14655
 Alpha  occ. eigenvalues --   -1.14571  -1.14534  -1.14498  -1.14417  -1.14374
 Alpha  occ. eigenvalues --   -1.13639  -1.13510  -1.13484  -1.13410  -1.13370
 Alpha  occ. eigenvalues --   -1.13338  -1.12846  -1.12811  -1.12752  -1.12730
 Alpha  occ. eigenvalues --   -1.12726  -1.12704  -1.11874  -1.11748  -1.11692
 Alpha  occ. eigenvalues --   -0.18457  -0.12256  -0.12199  -0.11342
 Alpha virt. eigenvalues --   -0.05223  -0.05060  -0.04250  -0.03103  -0.02823
 Alpha virt. eigenvalues --   -0.02792  -0.01232  -0.01049  -0.01016   0.00310
 Alpha virt. eigenvalues --    0.00338   0.00387   0.00579   0.00909   0.00911

  Beta  occ. eigenvalues --  -38.45048 -38.44899 -38.43901 -38.43883 -38.43295
  Beta  occ. eigenvalues --  -38.43272 -38.41735  -2.20802  -2.20661  -2.19793
  Beta  occ. eigenvalues --   -2.19765  -2.19111  -2.19091  -2.18054  -1.14551
  Beta  occ. eigenvalues --   -1.14467  -1.14430  -1.14406  -1.14327  -1.14283
  Beta  occ. eigenvalues --   -1.13626  -1.13484  -1.13463  -1.13394  -1.13356
  Beta  occ. eigenvalues --   -1.13319  -1.12849  -1.12815  -1.12740  -1.12729
  Beta  occ. eigenvalues --   -1.12718  -1.12709  -1.11736  -1.11732  -1.11677
  Beta  occ. eigenvalues --   -0.17591  -0.11990  -0.11221
  Beta virt. eigenvalues --   -0.08213  -0.04904  -0.04462  -0.04076  -0.02743
  Beta virt. eigenvalues --   -0.02458  -0.02180  -0.00969  -0.00937  -0.00692
  Beta virt. eigenvalues --    0.00412   0.00448   0.00454   0.00631   0.00933

 Mulliken charges and spin densities:
               1          2
     1  Na  -0.132858   0.649973
     2  Na   0.656077  -0.221921
     3  Na   0.614231  -0.356937
     4  Na  -0.104825   0.740858
     5  Na  -0.902192   0.956069
     6  Na  -0.061409  -0.389797
     7  Na  -0.069024  -0.378245
 Sum of Mulliken charges =  -0.00000   1.00000

 Dipole moment (field-independent basis, Debye):
    X=             -0.2978    Y=              0.0222    Z=              0.0345  Tot=              0.3006
 Quadrupole moment (field-independent basis, Debye-Ang):
   XX=            -65.3613   YY=            -69.3209   ZZ=            -55.6366
   XY=             -0.0520   XZ=              0.1437   YZ=             -0.0819

 Normal termination of Gaussian 16 at Mon Nov 13 20:34:08 2023.
