 Gaussian 16, Revision B.01,
 Gaussian 16:  ES64L-G16RevB.01 20-Dec-2017

 -------------------------
 #P B3LYP/6-311+g(d) force
 -------------------------

 ------------------------------
 Gaussian input prepared by ASE
 ------------------------------
 Symbolic Z-matrix:
 Charge =  0 Multiplicity = 2

                         Standard orientation:
 ---------------------------------------------------------------------
 Center     Atomic      Atomic             Coordinates (Angstroms)
 Number     Number       Type             X           Y           Z
 ---------------------------------------------------------------------
      1         11           0        0.028728    1.441719    2.197826
      2         11           0       -1.285856   -1.434386   -1.995009
      3         11           0        3.757616   -0.025160   -0.602321
      4         11           0        0.782929   -0.011554   -0.327690
      5         11           0       -0.230998   -2.191257    1.479995
      6         11           0       -2.031945    0.022063    0.528855
      7         11           0       -1.020474    2.198575   -1.281657
 ---------------------------------------------------------------------

 SCF Done:  E(UB3LYP) =  -1136.10196130     A.U. after   27 cycles

 The electronic state is 2-A.
 Alpha  occ. eigenvalues --  -38.44461 -38.44257 -38.43736 -38.43726 -38.43407
 Alpha  occ. eigenvalues --  -38.43294 -38.42420  -2.20266  -2.20192  -2.19673
 Alpha  occ. eigenvalues --   -2.19665  -2.19605  -2.19232  -2.18720  -1.13974
 Alpha  occ. eigenvalues --   -1.13958  -1.13885  -1.13883  -1.13839  -1.13760
 Alpha  occ. eigenvalues --   -1.13519  -1.13460  -1.13365  -1.13340  -1.13317
 Alpha  occ. eigenvalues --   -1.13262  -1.13224  -1.13211  -1.13131  -1.12965
 Alpha  occ. eigenvalues --   -1.12860  -1.12809  -1.12450  -1.12348  -1.12299
 Alpha  occ. eigenvalues --   -0.19863  -0.12926  -0.12382  -0.11785
 Alpha virt. eigenvalues --   -0.05486  -0.04423  -0.04155  -0.03086  -0.02954
 Alpha virt. eigenvalues --   -0.02668  -0.01212  -0.00973  -0.00711   0.00314
 Alpha virt. eigenvalues --    0.00439   0.00537   0.00675   0.00907   0.00963

  Beta  occ. eigenvalues --  -38.44416 -38.44201 -38.43698 -38.43693 -38.43377
  Beta  occ. eigenvalues --  -38.43273 -38.42389  -2.20185  -2.20093  -2.19607
  Beta  occ. eigenvalues --   -2.19605  -2.19559  -2.19196  -2.18673  -1.13911
  Beta  occ. eigenvalues --   -1.13884  -1.13831  -1.13830  -1.13769  -1.13688
  Beta  occ. eigenvalues --   -1.13482  -1.13398  -1.13315  -1.13298  -1.13291
  Beta  occ. eigenvalues --   -1.13202  -1.13175  -1.13142  -1.13097  -1.12933
  Beta  occ. eigenvalues --   -1.12838  -1.12774  -1.12359  -1.12308  -1.12278
  Beta  occ. eigenvalues --   -0.18955  -0.11918  -0.11686
  Beta virt. eigenvalues --   -0.08765  -0.05096  -0.04034  -0.03892  -0.02638
  Beta virt. eigenvalues --   -0.02424  -0.02141  -0.01034  -0.00726  -0.00589
  Beta virt. eigenvalues --    0.00353   0.00598   0.00631   0.00738   0.00946

 Mulliken charges and spin densities:
               1          2
     1  Na   0.292483   0.358739
     2  Na   0.472593   0.247674
     3  Na   0.187163  -0.113953
     4  Na  -2.250837  -0.379109
     5  Na   0.278049   0.314042
     6  Na   0.690803   0.339831
     7  Na   0.329747   0.232776
 Sum of Mulliken charges =  -0.00000   1.00000

 Dipole moment (field-independent basis, Debye):
    X=              0.0297    Y=              0.0040    Z=              0.0532  Tot=              0.0610
 Quadrupole moment (field-independent basis, Debye-Ang):
   XX=            -63.9802   YY=            -69.4932   ZZ=            -58.2426
   XY=              0.3644   XZ=             -1.3546   YZ=             -0.8118

 Normal termination of Gaussian 16 at Mon Nov 13 20:17:58 2023.
