 Gaussian 16, Revision B.01,
 Gaussian 16:  ES64L-G16RevB.01 20-Dec-2017

 -------------------------
 #P B3LYP/6-311+g(d) force
 -------------------------

 ------------------------------
 Gaussian input prepared by ASE
 ------------------------------
 Symbolic Z-matrix:
 Charge =  0 Multiplicity = 2

                         Standard orientation:
 ---------------------------------------------------------------------
 Center     Atomic      Atomic             Coordinates (Angstroms)
 Number     Number       Type             X           Y           Z
 ---------------------------------------------------------------------
      1         11           0        0.160998   -1.141505    0.312952
      2         11           0       -0.204250    2.245035   -0.898936
      3         11           0        2.906453   -1.757245   -0.294661
      4         11           0        2.053516    0.984037    0.306889
      5         11           0       -0.629062    1.350050    1.654980
      6         11           0       -1.515415   -0.063804   -1.562749
      7         11           0       -2.772240   -1.616568    0.481525
 ---------------------------------------------------------------------

 SCF Done:  E(UB3LYP) =  -1136.08551379     A.U. after   21 cycles

 The electronic state is 2-A.
 Alpha  occ. eigenvalues --  -38.44352 -38.44127 -38.43963 -38.43794 -38.43781
 Alpha  occ. eigenvalues --  -38.43754 -38.43338  -2.20486  -2.20067  -2.20061
 Alpha  occ. eigenvalues --   -2.19911  -2.19879  -2.19713  -2.19632  -1.14328
 Alpha  occ. eigenvalues --   -1.14321  -1.14094  -1.14018  -1.13842  -1.13796
 Alpha  occ. eigenvalues --   -1.13729  -1.13696  -1.13691  -1.13660  -1.13634
 Alpha  occ. eigenvalues --   -1.13522  -1.13474  -1.13468  -1.13396  -1.13364
 Alpha  occ. eigenvalues --   -1.13319  -1.13265  -1.13257  -1.13205  -1.13120
 Alpha  occ. eigenvalues --   -0.20603  -0.13852  -0.12702  -0.11669
 Alpha virt. eigenvalues --   -0.05617  -0.05003  -0.03770  -0.03551  -0.02947
 Alpha virt. eigenvalues --   -0.02457  -0.01450  -0.00839  -0.00225   0.00296
 Alpha virt. eigenvalues --    0.00413   0.00692   0.00867   0.00982   0.01088

  Beta  occ. eigenvalues --  -38.44285 -38.44120 -38.43891 -38.43796 -38.43743
  Beta  occ. eigenvalues --  -38.43740 -38.43307  -2.20368  -2.20051  -2.19941
  Beta  occ. eigenvalues --   -2.19871  -2.19831  -2.19716  -2.19587  -1.14260
  Beta  occ. eigenvalues --   -1.14231  -1.14015  -1.13961  -1.13789  -1.13744
  Beta  occ. eigenvalues --   -1.13706  -1.13664  -1.13661  -1.13639  -1.13556
  Beta  occ. eigenvalues --   -1.13480  -1.13447  -1.13408  -1.13360  -1.13308
  Beta  occ. eigenvalues --   -1.13290  -1.13255  -1.13200  -1.13156  -1.13086
  Beta  occ. eigenvalues --   -0.19769  -0.13656  -0.12502
  Beta virt. eigenvalues --   -0.07377  -0.05473  -0.04875  -0.03715  -0.02846
  Beta virt. eigenvalues --   -0.02239  -0.01555  -0.01350  -0.00729   0.00041
  Beta virt. eigenvalues --    0.00356   0.00400   0.00746   0.00890   0.01001

 Mulliken charges and spin densities:
               1          2
     1  Na  -0.697729   0.745642
     2  Na   0.805939   0.149652
     3  Na   0.766908  -0.163546
     4  Na   0.406853   0.437895
     5  Na  -0.855321  -0.019125
     6  Na  -0.867467  -0.052591
     7  Na   0.440817  -0.097928
 Sum of Mulliken charges =  -0.00000   1.00000

 Dipole moment (field-independent basis, Debye):
    X=             -0.3851    Y=             -0.0357    Z=              0.1748  Tot=              0.4244
 Quadrupole moment (field-independent basis, Debye-Ang):
   XX=            -57.6116   YY=            -67.3723   ZZ=            -69.6142
   XY=              1.0059   XZ=             -2.5173   YZ=             -0.1982

 Normal termination of Gaussian 16 at Mon Nov 13 16:58:11 2023.
