 Gaussian 16, Revision B.01,
 Gaussian 16:  ES64L-G16RevB.01 20-Dec-2017

 -------------------------
 #P B3LYP/6-311+g(d) force
 -------------------------

 ------------------------------
 Gaussian input prepared by ASE
 ------------------------------
 Symbolic Z-matrix:
 Charge =  0 Multiplicity = 2

                         Standard orientation:
 ---------------------------------------------------------------------
 Center     Atomic      Atomic             Coordinates (Angstroms)
 Number     Number       Type             X           Y           Z
 ---------------------------------------------------------------------
      1         11           0       -1.138422    1.487376    0.126054
      2         11           0       -0.730165   -1.060036   -1.404726
      3         11           0       -3.473863   -0.295356   -0.470633
      4         11           0       -1.396186   -1.156111    1.515624
      5         11           0        1.588794    2.711173   -0.127131
      6         11           0        1.301310   -0.182257    0.623270
      7         11           0        3.848533   -1.504790   -0.262458
 ---------------------------------------------------------------------

 SCF Done:  E(UB3LYP) =  -1136.09036954     A.U. after   25 cycles

 The electronic state is 2-A.
 Alpha  occ. eigenvalues --  -38.45122 -38.45094 -38.44653 -38.43943 -38.43419
 Alpha  occ. eigenvalues --  -38.42917 -38.42756  -2.21144  -2.21111  -2.20442
 Alpha  occ. eigenvalues --   -2.20045  -2.19312  -2.19090  -2.18930  -1.14952
 Alpha  occ. eigenvalues --   -1.14885  -1.14785  -1.14780  -1.14739  -1.14635
 Alpha  occ. eigenvalues --   -1.14148  -1.14085  -1.14073  -1.13779  -1.13666
 Alpha  occ. eigenvalues --   -1.13632  -1.13085  -1.12991  -1.12938  -1.12868
 Alpha  occ. eigenvalues --   -1.12727  -1.12678  -1.12638  -1.12567  -1.12473
 Alpha  occ. eigenvalues --   -0.20228  -0.14254  -0.11650  -0.11031
 Alpha virt. eigenvalues --   -0.07312  -0.05347  -0.03684  -0.03175  -0.02753
 Alpha virt. eigenvalues --   -0.01944  -0.01896  -0.01147  -0.00651  -0.00023
 Alpha virt. eigenvalues --    0.00099   0.00368   0.00429   0.00630   0.00835

  Beta  occ. eigenvalues --  -38.45091 -38.45051 -38.44652 -38.43855 -38.43423
  Beta  occ. eigenvalues --  -38.42892 -38.42724  -2.21074  -2.21054  -2.20439
  Beta  occ. eigenvalues --   -2.19887  -2.19320  -2.19054  -2.18881  -1.14912
  Beta  occ. eigenvalues --   -1.14823  -1.14746  -1.14706  -1.14679  -1.14581
  Beta  occ. eigenvalues --   -1.14148  -1.14080  -1.14071  -1.13667  -1.13559
  Beta  occ. eigenvalues --   -1.13506  -1.13086  -1.12995  -1.12936  -1.12843
  Beta  occ. eigenvalues --   -1.12673  -1.12636  -1.12603  -1.12476  -1.12443
  Beta  occ. eigenvalues --   -0.19376  -0.14021  -0.11492
  Beta virt. eigenvalues --   -0.07196  -0.06771  -0.05161  -0.03362  -0.02851
  Beta virt. eigenvalues --   -0.02570  -0.01435  -0.01145  -0.01017  -0.00306
  Beta virt. eigenvalues --    0.00073   0.00117   0.00482   0.00605   0.00694

 Mulliken charges and spin densities:
               1          2
     1  Na   0.055044   0.361814
     2  Na  -1.425414   0.291241
     3  Na   2.311846   0.196978
     4  Na  -0.156549   0.027305
     5  Na  -0.969498  -0.194289
     6  Na   0.369758   0.410311
     7  Na  -0.185187  -0.093360
 Sum of Mulliken charges =  -0.00000   1.00000

 Dipole moment (field-independent basis, Debye):
    X=             -0.5551    Y=             -0.1827    Z=             -0.1496  Tot=              0.6033
 Quadrupole moment (field-independent basis, Debye-Ang):
   XX=            -47.7122   YY=            -71.6751   ZZ=            -72.4880
   XY=              2.3682   XZ=             -2.1571   YZ=              0.2111

 Normal termination of Gaussian 16 at Mon Nov 13 18:57:02 2023.
