 Gaussian 16, Revision B.01,
 Gaussian 16:  ES64L-G16RevB.01 20-Dec-2017

 -------------------------
 #P B3LYP/6-311+g(d) force
 -------------------------

 ------------------------------
 Gaussian input prepared by ASE
 ------------------------------
 Symbolic Z-matrix:
 Charge =  0 Multiplicity = 2

                         Standard orientation:
 ---------------------------------------------------------------------
 Center     Atomic      Atomic             Coordinates (Angstroms)
 Number     Number       Type             X           Y           Z
 ---------------------------------------------------------------------
      1         11           0       -1.013330    1.503101   -0.918365
      2         11           0        1.420307    2.633309    0.416749
      3         11           0        4.178655   -1.235079   -0.056112
      4         11           0        1.365207   -0.253371   -0.386661
      5         11           0       -0.765871   -2.026570    0.781516
      6         11           0       -2.495293    0.341969    1.422167
      7         11           0       -2.689675   -0.963360   -1.259295
 ---------------------------------------------------------------------

 SCF Done:  E(UB3LYP) =  -1136.09714703     A.U. after   27 cycles

 The electronic state is 2-A.
 Alpha  occ. eigenvalues --  -38.45162 -38.44687 -38.44389 -38.44158 -38.43825
 Alpha  occ. eigenvalues --  -38.43326 -38.43001  -2.20941  -2.20690  -2.20365
 Alpha  occ. eigenvalues --   -2.20176  -2.19715  -2.19390  -2.19098  -1.14642
 Alpha  occ. eigenvalues --   -1.14592  -1.14578  -1.14440  -1.14375  -1.14308
 Alpha  occ. eigenvalues --   -1.14086  -1.14055  -1.13966  -1.13858  -1.13792
 Alpha  occ. eigenvalues --   -1.13750  -1.13484  -1.13373  -1.13334  -1.13119
 Alpha  occ. eigenvalues --   -1.13046  -1.12997  -1.12756  -1.12740  -1.12696
 Alpha  occ. eigenvalues --   -0.19615  -0.14096  -0.12024  -0.10688
 Alpha virt. eigenvalues --   -0.07320  -0.05464  -0.03604  -0.03358  -0.02768
 Alpha virt. eigenvalues --   -0.02238  -0.01851  -0.01164  -0.00515  -0.00255
 Alpha virt. eigenvalues --    0.00070   0.00083   0.00412   0.00648   0.00808

  Beta  occ. eigenvalues --  -38.45175 -38.44628 -38.44352 -38.44100 -38.43825
  Beta  occ. eigenvalues --  -38.43314 -38.42964  -2.20966  -2.20584  -2.20302
  Beta  occ. eigenvalues --   -2.20074  -2.19715  -2.19371  -2.19036  -1.14659
  Beta  occ. eigenvalues --   -1.14608  -1.14596  -1.14378  -1.14268  -1.14234
  Beta  occ. eigenvalues --   -1.14044  -1.14004  -1.13889  -1.13784  -1.13711
  Beta  occ. eigenvalues --   -1.13669  -1.13484  -1.13373  -1.13326  -1.13113
  Beta  occ. eigenvalues --   -1.13022  -1.12968  -1.12720  -1.12708  -1.12601
  Beta  occ. eigenvalues --   -0.18834  -0.13990  -0.11871
  Beta virt. eigenvalues --   -0.07137  -0.06468  -0.05305  -0.03568  -0.02885
  Beta virt. eigenvalues --   -0.02647  -0.01688  -0.01087  -0.00896  -0.00235
  Beta virt. eigenvalues --   -0.00099   0.00123   0.00200   0.00561   0.00682

 Mulliken charges and spin densities:
               1          2
     1  Na   2.139041   0.396401
     2  Na   0.295595  -0.039553
     3  Na  -1.081376  -0.108644
     4  Na  -2.702229   0.059022
     5  Na   0.147828   0.179134
     6  Na   0.105441   0.387268
     7  Na   1.095699   0.126373
 Sum of Mulliken charges =  -0.00000   1.00000

 Dipole moment (field-independent basis, Debye):
    X=              0.5474    Y=              0.0442    Z=              0.5728  Tot=              0.7935
 Quadrupole moment (field-independent basis, Debye-Ang):
   XX=            -49.0661   YY=            -68.3326   ZZ=            -74.3902
   XY=              1.0243   XZ=              1.1514   YZ=              2.4465

 Normal termination of Gaussian 16 at Mon Nov 13 17:19:34 2023.
