 Gaussian 16, Revision B.01,
 Gaussian 16:  ES64L-G16RevB.01 20-Dec-2017

 -------------------------
 #P B3LYP/6-311+g(d) force
 -------------------------

 ------------------------------
 Gaussian input prepared by ASE
 ------------------------------
 Symbolic Z-matrix:
 Charge =  0 Multiplicity = 2

                         Standard orientation:
 ---------------------------------------------------------------------
 Center     Atomic      Atomic             Coordinates (Angstroms)
 Number     Number       Type             X           Y           Z
 ---------------------------------------------------------------------
      1         11           0       -0.144689    0.114806   -1.525033
      2         11           0       -0.170892    0.295793    1.545636
      3         11           0        3.748190    0.791798   -0.015308
      4         11           0        1.763077   -1.306514    0.115603
      5         11           0       -1.035083   -2.017761   -0.110086
      6         11           0       -1.288027    2.151744   -0.156489
      7         11           0       -2.872576   -0.029866    0.145677
 ---------------------------------------------------------------------

 SCF Done:  E(UB3LYP) =  -1136.06608453     A.U. after   23 cycles

 The electronic state is 2-A.
 Alpha  occ. eigenvalues --  -38.45640 -38.45348 -38.44153 -38.44014 -38.43677
 Alpha  occ. eigenvalues --  -38.43596 -38.42958  -2.21478  -2.21443  -2.20430
 Alpha  occ. eigenvalues --   -2.20243  -2.19791  -2.19730  -2.19153  -1.15255
 Alpha  occ. eigenvalues --   -1.15236  -1.15183  -1.15087  -1.15072  -1.15058
 Alpha  occ. eigenvalues --   -1.14300  -1.14275  -1.14040  -1.14035  -1.13928
 Alpha  occ. eigenvalues --   -1.13818  -1.13457  -1.13392  -1.13374  -1.13354
 Alpha  occ. eigenvalues --   -1.13334  -1.13311  -1.12816  -1.12780  -1.12713
 Alpha  occ. eigenvalues --   -0.21076  -0.14485  -0.12102  -0.11342
 Alpha virt. eigenvalues --   -0.07193  -0.04476  -0.03721  -0.03391  -0.02608
 Alpha virt. eigenvalues --   -0.02316  -0.01977  -0.00856  -0.00074   0.00064
 Alpha virt. eigenvalues --    0.00242   0.00382   0.00672   0.00857   0.01027

  Beta  occ. eigenvalues --  -38.45652 -38.45325 -38.44065 -38.43932 -38.43659
  Beta  occ. eigenvalues --  -38.43584 -38.42937  -2.21468  -2.21445  -2.20273
  Beta  occ. eigenvalues --   -2.20097  -2.19765  -2.19712  -2.19124  -1.15240
  Beta  occ. eigenvalues --   -1.15221  -1.15201  -1.15096  -1.15075  -1.14983
  Beta  occ. eigenvalues --   -1.14214  -1.14169  -1.13939  -1.13921  -1.13827
  Beta  occ. eigenvalues --   -1.13702  -1.13446  -1.13378  -1.13331  -1.13320
  Beta  occ. eigenvalues --   -1.13299  -1.13236  -1.12802  -1.12765  -1.12621
  Beta  occ. eigenvalues --   -0.20231  -0.14231  -0.11752
  Beta virt. eigenvalues --   -0.07147  -0.07106  -0.04492  -0.03344  -0.02895
  Beta virt. eigenvalues --   -0.02519  -0.01504  -0.00974  -0.00821   0.00081
  Beta virt. eigenvalues --    0.00124   0.00243   0.00385   0.00886   0.00917

 Mulliken charges and spin densities:
               1          2
     1  Na  -0.447639   0.321430
     2  Na  -0.454682   0.371627
     3  Na  -0.024145  -0.139871
     4  Na  -0.023582   0.075575
     5  Na   0.262706   0.198037
     6  Na   0.106955  -0.042284
     7  Na   0.580388   0.215485
 Sum of Mulliken charges =  -0.00000   1.00000

 Dipole moment (field-independent basis, Debye):
    X=              0.8900    Y=              0.4047    Z=              0.0614  Tot=              0.9796
 Quadrupole moment (field-independent basis, Debye-Ang):
   XX=            -47.2805   YY=            -72.2236   ZZ=            -73.7233
   XY=              3.3779   XZ=             -0.3824   YZ=             -0.4715

 Normal termination of Gaussian 16 at Mon Nov 13 18:13:19 2023.
