 Gaussian 16, Revision B.01,
 Gaussian 16:  ES64L-G16RevB.01 20-Dec-2017

 -------------------------
 #P B3LYP/6-311+g(d) force
 -------------------------

 ------------------------------
 Gaussian input prepared by ASE
 ------------------------------
 Symbolic Z-matrix:
 Charge =  0 Multiplicity = 2

                         Standard orientation:
 ---------------------------------------------------------------------
 Center     Atomic      Atomic             Coordinates (Angstroms)
 Number     Number       Type             X           Y           Z
 ---------------------------------------------------------------------
      1         11           0       -0.528949    0.457175   -1.005174
      2         11           0        0.721215   -2.224111   -1.553615
      3         11           0        0.127079    3.179746    0.064058
      4         11           0        2.278362    1.119334   -0.165001
      5         11           0        1.790007   -1.528527    1.168171
      6         11           0       -1.064053   -0.755907    1.691890
      7         11           0       -3.323661   -0.247711   -0.200328
 ---------------------------------------------------------------------

 SCF Done:  E(UB3LYP) =  -1136.11208255     A.U. after   19 cycles

 The electronic state is 2-A.
 Alpha  occ. eigenvalues --  -38.44113 -38.43979 -38.43749 -38.43655 -38.43629
 Alpha  occ. eigenvalues --  -38.43508 -38.42923  -2.20042  -2.19868  -2.19755
 Alpha  occ. eigenvalues --   -2.19645  -2.19521  -2.19518  -2.19137  -1.13763
 Alpha  occ. eigenvalues --   -1.13715  -1.13663  -1.13632  -1.13568  -1.13499
 Alpha  occ. eigenvalues --   -1.13475  -1.13439  -1.13404  -1.13380  -1.13332
 Alpha  occ. eigenvalues --   -1.13301  -1.13225  -1.13143  -1.13137  -1.13133
 Alpha  occ. eigenvalues --   -1.13122  -1.13067  -1.12799  -1.12770  -1.12734
 Alpha  occ. eigenvalues --   -0.19606  -0.13145  -0.12804  -0.11477
 Alpha virt. eigenvalues --   -0.05462  -0.05014  -0.04041  -0.03429  -0.02975
 Alpha virt. eigenvalues --   -0.02694  -0.01331  -0.01077  -0.00234   0.00250
 Alpha virt. eigenvalues --    0.00325   0.00512   0.00847   0.00887   0.01015

  Beta  occ. eigenvalues --  -38.44049 -38.43979 -38.43687 -38.43647 -38.43631
  Beta  occ. eigenvalues --  -38.43471 -38.42879  -2.19926  -2.19869  -2.19643
  Beta  occ. eigenvalues --   -2.19634  -2.19526  -2.19456  -2.19063  -1.13681
  Beta  occ. eigenvalues --   -1.13643  -1.13629  -1.13554  -1.13548  -1.13475
  Beta  occ. eigenvalues --   -1.13442  -1.13424  -1.13388  -1.13314  -1.13268
  Beta  occ. eigenvalues --   -1.13255  -1.13223  -1.13139  -1.13121  -1.13088
  Beta  occ. eigenvalues --   -1.13061  -1.13037  -1.12742  -1.12696  -1.12681
  Beta  occ. eigenvalues --   -0.18844  -0.12982  -0.12613
  Beta virt. eigenvalues --   -0.07278  -0.05357  -0.04878  -0.03911  -0.02812
  Beta virt. eigenvalues --   -0.02362  -0.01712  -0.01242  -0.00932   0.00010
  Beta virt. eigenvalues --    0.00261   0.00382   0.00584   0.00845   0.01017

 Mulliken charges and spin densities:
               1          2
     1  Na  -0.523498   0.001639
     2  Na  -0.273980   0.232568
     3  Na   0.106340  -0.114862
     4  Na   0.028826   0.402467
     5  Na   0.696105   0.021011
     6  Na  -0.428889   0.370662
     7  Na   0.395095   0.086514
 Sum of Mulliken charges =  -0.00000   1.00000

 Dipole moment (field-independent basis, Debye):
    X=             -0.3167    Y=             -0.1051    Z=              0.0540  Tot=              0.3380
 Quadrupole moment (field-independent basis, Debye-Ang):
   XX=            -60.0043   YY=            -63.7362   ZZ=            -70.2152
   XY=             -1.4846   XZ=              1.0856   YZ=              2.4973

 Normal termination of Gaussian 16 at Mon Nov 13 15:29:42 2023.
