 Gaussian 16, Revision B.01,
 Gaussian 16:  ES64L-G16RevB.01 20-Dec-2017

 -------------------------
 #P B3LYP/6-311+g(d) force
 -------------------------

 ------------------------------
 Gaussian input prepared by ASE
 ------------------------------
 Symbolic Z-matrix:
 Charge =  0 Multiplicity = 2

                         Standard orientation:
 ---------------------------------------------------------------------
 Center     Atomic      Atomic             Coordinates (Angstroms)
 Number     Number       Type             X           Y           Z
 ---------------------------------------------------------------------
      1         11           0       -2.178320    0.177857    0.917509
      2         11           0        0.193778   -0.816907    1.861259
      3         11           0        0.203286    2.004109    0.693665
      4         11           0       -1.554250    1.054191   -1.604477
      5         11           0       -1.330001   -1.887997   -0.628245
      6         11           0        0.965429   -0.450308   -1.007313
      7         11           0        3.700078   -0.080945   -0.232398
 ---------------------------------------------------------------------

 SCF Done:  E(UB3LYP) =  -1136.08005967     A.U. after   26 cycles

 The electronic state is 2-A.
 Alpha  occ. eigenvalues --  -38.45061 -38.44604 -38.44367 -38.43880 -38.43559
 Alpha  occ. eigenvalues --  -38.43234 -38.42839  -2.20881  -2.20854  -2.20479
 Alpha  occ. eigenvalues --   -2.19994  -2.19810  -2.19372  -2.18898  -1.14761
 Alpha  occ. eigenvalues --   -1.14680  -1.14642  -1.14507  -1.14498  -1.14469
 Alpha  occ. eigenvalues --   -1.14181  -1.14075  -1.14020  -1.13789  -1.13628
 Alpha  occ. eigenvalues --   -1.13613  -1.13557  -1.13453  -1.13365  -1.13022
 Alpha  occ. eigenvalues --   -1.12957  -1.12913  -1.12634  -1.12545  -1.12466
 Alpha  occ. eigenvalues --   -0.21149  -0.13638  -0.12968  -0.11674
 Alpha virt. eigenvalues --   -0.06436  -0.03957  -0.03709  -0.03385  -0.02937
 Alpha virt. eigenvalues --   -0.02835  -0.01855  -0.00497  -0.00276   0.00206
 Alpha virt. eigenvalues --    0.00412   0.00616   0.00699   0.00943   0.01069

  Beta  occ. eigenvalues --  -38.45062 -38.44565 -38.44284 -38.43826 -38.43515
  Beta  occ. eigenvalues --  -38.43207 -38.42809  -2.20883  -2.20792  -2.20332
  Beta  occ. eigenvalues --   -2.19898  -2.19734  -2.19329  -2.18849  -1.14688
  Beta  occ. eigenvalues --   -1.14638  -1.14601  -1.14507  -1.14499  -1.14427
  Beta  occ. eigenvalues --   -1.14097  -1.13947  -1.13921  -1.13716  -1.13566
  Beta  occ. eigenvalues --   -1.13562  -1.13475  -1.13386  -1.13295  -1.13002
  Beta  occ. eigenvalues --   -1.12915  -1.12846  -1.12599  -1.12472  -1.12440
  Beta  occ. eigenvalues --   -0.20211  -0.13432  -0.11497
  Beta virt. eigenvalues --   -0.08411  -0.06281  -0.03460  -0.03349  -0.03111
  Beta virt. eigenvalues --   -0.02301  -0.01915  -0.01765  -0.00283  -0.00182
  Beta virt. eigenvalues --    0.00258   0.00499   0.00694   0.00767   0.00979

 Mulliken charges and spin densities:
               1          2
     1  Na   0.723713   0.257156
     2  Na  -0.380597   0.247782
     3  Na  -0.508407   0.027290
     4  Na  -0.040447   0.003609
     5  Na  -0.486406  -0.021033
     6  Na   0.337757   0.473850
     7  Na   0.354386   0.011344
 Sum of Mulliken charges =  -0.00000   1.00000

 Dipole moment (field-independent basis, Debye):
    X=              0.9157    Y=              0.2021    Z=              0.1341  Tot=              0.9473
 Quadrupole moment (field-independent basis, Debye-Ang):
   XX=            -53.8499   YY=            -76.2749   ZZ=            -64.2239
   XY=              0.5104   XZ=              1.4449   YZ=              1.3522

 Normal termination of Gaussian 16 at Mon Nov 13 15:55:02 2023.
