 Gaussian 16, Revision B.01,
 Gaussian 16:  ES64L-G16RevB.01 20-Dec-2017

 -------------------------
 #P B3LYP/6-311+g(d) force
 -------------------------

 ------------------------------
 Gaussian input prepared by ASE
 ------------------------------
 Symbolic Z-matrix:
 Charge =  0 Multiplicity = 2

                         Standard orientation:
 ---------------------------------------------------------------------
 Center     Atomic      Atomic             Coordinates (Angstroms)
 Number     Number       Type             X           Y           Z
 ---------------------------------------------------------------------
      1         11           0        1.272089   -0.191144    1.503983
      2         11           0        0.442437   -1.682016   -0.637684
      3         11           0        3.865639   -0.139006   -0.036895
      4         11           0        1.582540    0.838353   -1.376873
      5         11           0       -0.421768    1.683655    0.414224
      6         11           0       -2.036776   -0.558715    0.559362
      7         11           0       -4.704161    0.048873   -0.426116
 ---------------------------------------------------------------------

 SCF Done:  E(UB3LYP) =  -1136.06226130     A.U. after   34 cycles

 The electronic state is 2-A.
 Alpha  occ. eigenvalues --  -38.46019 -38.45366 -38.44795 -38.44642 -38.43870
 Alpha  occ. eigenvalues --  -38.43365 -38.43267  -2.22084  -2.21525  -2.20879
 Alpha  occ. eigenvalues --   -2.20722  -2.19694  -2.19471  -2.19402  -1.15893
 Alpha  occ. eigenvalues --   -1.15820  -1.15650  -1.15251  -1.15199  -1.15137
 Alpha  occ. eigenvalues --   -1.14600  -1.14560  -1.14534  -1.14383  -1.14333
 Alpha  occ. eigenvalues --   -1.14289  -1.13490  -1.13375  -1.13324  -1.13317
 Alpha  occ. eigenvalues --   -1.13159  -1.13070  -1.13052  -1.12986  -1.12841
 Alpha  occ. eigenvalues --   -0.20857  -0.14662  -0.11986  -0.10973
 Alpha virt. eigenvalues --   -0.08526  -0.04531  -0.03960  -0.03480  -0.03247
 Alpha virt. eigenvalues --   -0.02162  -0.01958  -0.01417  -0.00879  -0.00603
 Alpha virt. eigenvalues --    0.00180   0.00215   0.00288   0.00653   0.00960

  Beta  occ. eigenvalues --  -38.45948 -38.45306 -38.44795 -38.44596 -38.43854
  Beta  occ. eigenvalues --  -38.43347 -38.43240  -2.21963  -2.21418  -2.20803
  Beta  occ. eigenvalues --   -2.20724  -2.19665  -2.19444  -2.19358  -1.15821
  Beta  occ. eigenvalues --   -1.15686  -1.15571  -1.15183  -1.15134  -1.15032
  Beta  occ. eigenvalues --   -1.14569  -1.14528  -1.14426  -1.14363  -1.14314
  Beta  occ. eigenvalues --   -1.14279  -1.13465  -1.13352  -1.13304  -1.13296
  Beta  occ. eigenvalues --   -1.13133  -1.13040  -1.12994  -1.12938  -1.12817
  Beta  occ. eigenvalues --   -0.20083  -0.14350  -0.10748
  Beta virt. eigenvalues --   -0.08380  -0.07761  -0.04308  -0.03481  -0.03310
  Beta virt. eigenvalues --   -0.02780  -0.01530  -0.01329  -0.01175  -0.00688
  Beta virt. eigenvalues --   -0.00536   0.00215   0.00289   0.00378   0.00736

 Mulliken charges and spin densities:
               1          2
     1  Na   0.203776   0.317514
     2  Na  -0.011482   0.201676
     3  Na   0.142681  -0.132960
     4  Na   0.150998   0.370150
     5  Na  -0.365647   0.163879
     6  Na  -0.245066   0.006056
     7  Na   0.124740   0.073685
 Sum of Mulliken charges =  -0.00000   1.00000

 Dipole moment (field-independent basis, Debye):
    X=              1.5920    Y=              0.5949    Z=              0.5177  Tot=              1.7766
 Quadrupole moment (field-independent basis, Debye-Ang):
   XX=            -64.7069   YY=            -74.0502   ZZ=            -66.3716
   XY=             -1.2915   XZ=              4.5254   YZ=             -1.2303

 Normal termination of Gaussian 16 at Mon Nov 13 16:16:07 2023.
