 Gaussian 16, Revision B.01,
 Gaussian 16:  ES64L-G16RevB.01 20-Dec-2017

 -------------------------
 #P B3LYP/6-311+g(d) force
 -------------------------

 ------------------------------
 Gaussian input prepared by ASE
 ------------------------------
 Symbolic Z-matrix:
 Charge =  0 Multiplicity = 2

                         Standard orientation:
 ---------------------------------------------------------------------
 Center     Atomic      Atomic             Coordinates (Angstroms)
 Number     Number       Type             X           Y           Z
 ---------------------------------------------------------------------
      1         11           0        1.196972    3.193251    0.309258
      2         11           0        4.079814   -1.031681    0.847880
      3         11           0        2.264924   -2.240716   -1.209381
      4         11           0        1.398045    0.199195    0.306148
      5         11           0       -1.138278    1.536896   -0.576907
      6         11           0       -3.548320   -0.162344   -1.136607
      7         11           0       -4.253157   -1.494601    1.459610
 ---------------------------------------------------------------------

 SCF Done:  E(UB3LYP) =  -1136.10204778     A.U. after   20 cycles

 The electronic state is 2-A.
 Alpha  occ. eigenvalues --  -38.44704 -38.44425 -38.44016 -38.43780 -38.43732
 Alpha  occ. eigenvalues --  -38.43481 -38.43445  -2.20603  -2.20329  -2.19844
 Alpha  occ. eigenvalues --   -2.19825  -2.19660  -2.19437  -2.19387  -1.14345
 Alpha  occ. eigenvalues --   -1.14276  -1.14231  -1.14042  -1.13955  -1.13914
 Alpha  occ. eigenvalues --   -1.13578  -1.13560  -1.13518  -1.13478  -1.13476
 Alpha  occ. eigenvalues --   -1.13475  -1.13411  -1.13290  -1.13263  -1.13152
 Alpha  occ. eigenvalues --   -1.13098  -1.13054  -1.13032  -1.13008  -1.12924
 Alpha  occ. eigenvalues --   -0.17616  -0.14580  -0.12668  -0.09907
 Alpha virt. eigenvalues --   -0.06499  -0.05426  -0.04461  -0.03582  -0.02776
 Alpha virt. eigenvalues --   -0.02416  -0.01647  -0.01495  -0.00701  -0.00505
 Alpha virt. eigenvalues --   -0.00067   0.00106   0.00221   0.00530   0.00646

  Beta  occ. eigenvalues --  -38.44684 -38.44391 -38.43953 -38.43783 -38.43709
  Beta  occ. eigenvalues --  -38.43466 -38.43419  -2.20565  -2.20265  -2.19793
  Beta  occ. eigenvalues --   -2.19726  -2.19670  -2.19391  -2.19359  -1.14322
  Beta  occ. eigenvalues --   -1.14237  -1.14204  -1.13997  -1.13912  -1.13868
  Beta  occ. eigenvalues --   -1.13538  -1.13513  -1.13473  -1.13425  -1.13413
  Beta  occ. eigenvalues --   -1.13397  -1.13382  -1.13299  -1.13235  -1.13131
  Beta  occ. eigenvalues --   -1.13065  -1.13021  -1.13006  -1.12983  -1.12900
  Beta  occ. eigenvalues --   -0.17092  -0.14284  -0.12348
  Beta virt. eigenvalues --   -0.06707  -0.05724  -0.05092  -0.04306  -0.03238
  Beta virt. eigenvalues --   -0.02515  -0.02225  -0.01435  -0.01180  -0.00545
  Beta virt. eigenvalues --   -0.00138   0.00174   0.00248   0.00369   0.00682

 Mulliken charges and spin densities:
               1          2
     1  Na   1.800519   0.277578
     2  Na   0.302971  -0.279532
     3  Na   0.630354   0.195082
     4  Na  -2.948977   0.179216
     5  Na   0.190556   0.455826
     6  Na  -0.135101  -0.155322
     7  Na   0.159679   0.327152
 Sum of Mulliken charges =  -0.00000   1.00000

 Dipole moment (field-independent basis, Debye):
    X=              1.6301    Y=             -0.4190    Z=             -0.0665  Tot=              1.6844
 Quadrupole moment (field-independent basis, Debye-Ang):
   XX=            -65.4248   YY=            -64.8175   ZZ=            -67.1383
   XY=             -3.1604   XZ=              1.7588   YZ=             -1.1757

 Normal termination of Gaussian 16 at Mon Nov 13 15:30:49 2023.
