 Gaussian 16, Revision B.01,
 Gaussian 16:  ES64L-G16RevB.01 20-Dec-2017

 -------------------------
 #P B3LYP/6-311+g(d) force
 -------------------------

 ------------------------------
 Gaussian input prepared by ASE
 ------------------------------
 Symbolic Z-matrix:
 Charge =  0 Multiplicity = 2

                         Standard orientation:
 ---------------------------------------------------------------------
 Center     Atomic      Atomic             Coordinates (Angstroms)
 Number     Number       Type             X           Y           Z
 ---------------------------------------------------------------------
      1         11           0        1.244058    1.383448   -1.323218
      2         11           0       -0.002358    3.092747    0.793448
      3         11           0        2.831019   -1.157100   -1.138938
      4         11           0        1.826006   -1.286075    1.686958
      5         11           0       -0.617075    0.159496    0.691739
      6         11           0       -1.959759   -2.403966   -0.102529
      7         11           0       -3.321891    0.211450   -0.607459
 ---------------------------------------------------------------------

 SCF Done:  E(UB3LYP) =  -1136.11054872     A.U. after   21 cycles

 The electronic state is 2-A.
 Alpha  occ. eigenvalues --  -38.44554 -38.44253 -38.43755 -38.43714 -38.43564
 Alpha  occ. eigenvalues --  -38.43330 -38.42903  -2.20446  -2.20141  -2.19670
 Alpha  occ. eigenvalues --   -2.19629  -2.19561  -2.19233  -2.19109  -1.14192
 Alpha  occ. eigenvalues --   -1.14101  -1.14072  -1.13849  -1.13775  -1.13736
 Alpha  occ. eigenvalues --   -1.13447  -1.13433  -1.13358  -1.13313  -1.13289
 Alpha  occ. eigenvalues --   -1.13226  -1.13218  -1.13170  -1.13135  -1.12975
 Alpha  occ. eigenvalues --   -1.12862  -1.12840  -1.12775  -1.12749  -1.12680
 Alpha  occ. eigenvalues --   -0.18725  -0.13882  -0.12445  -0.10838
 Alpha virt. eigenvalues --   -0.05698  -0.04982  -0.04090  -0.03841  -0.03027
 Alpha virt. eigenvalues --   -0.02010  -0.01579  -0.01156  -0.00369  -0.00010
 Alpha virt. eigenvalues --    0.00282   0.00414   0.00695   0.00825   0.00929

  Beta  occ. eigenvalues --  -38.44540 -38.44250 -38.43715 -38.43662 -38.43519
  Beta  occ. eigenvalues --  -38.43319 -38.42864  -2.20420  -2.20139  -2.19600
  Beta  occ. eigenvalues --   -2.19535  -2.19481  -2.19213  -2.19045  -1.14179
  Beta  occ. eigenvalues --   -1.14079  -1.14053  -1.13846  -1.13769  -1.13724
  Beta  occ. eigenvalues --   -1.13397  -1.13358  -1.13282  -1.13258  -1.13241
  Beta  occ. eigenvalues --   -1.13163  -1.13159  -1.13107  -1.13085  -1.12944
  Beta  occ. eigenvalues --   -1.12841  -1.12819  -1.12719  -1.12676  -1.12642
  Beta  occ. eigenvalues --   -0.18091  -0.13525  -0.12285
  Beta virt. eigenvalues --   -0.06901  -0.05591  -0.04898  -0.03884  -0.03216
  Beta virt. eigenvalues --   -0.02412  -0.01487  -0.01245  -0.01113  -0.00089
  Beta virt. eigenvalues --    0.00091   0.00343   0.00478   0.00758   0.00873

 Mulliken charges and spin densities:
               1          2
     1  Na  -0.503766   0.126743
     2  Na   0.743568  -0.046137
     3  Na  -0.129981   0.121657
     4  Na   0.751670   0.069906
     5  Na  -1.621423   0.750782
     6  Na   0.588938   0.031432
     7  Na   0.170995  -0.054384
 Sum of Mulliken charges =  -0.00000   1.00000

 Dipole moment (field-independent basis, Debye):
    X=             -0.7878    Y=             -0.2657    Z=             -0.0785  Tot=              0.8350
 Quadrupole moment (field-independent basis, Debye-Ang):
   XX=            -60.6717   YY=            -62.1173   ZZ=            -70.8796
   XY=             -2.3812   XZ=              2.3426   YZ=              1.6438

 Normal termination of Gaussian 16 at Mon Nov 13 17:26:57 2023.
