 Gaussian 16, Revision B.01,
 Gaussian 16:  ES64L-G16RevB.01 20-Dec-2017

 -------------------------
 #P B3LYP/6-311+g(d) force
 -------------------------

 ------------------------------
 Gaussian input prepared by ASE
 ------------------------------
 Symbolic Z-matrix:
 Charge =  0 Multiplicity = 2

                         Standard orientation:
 ---------------------------------------------------------------------
 Center     Atomic      Atomic             Coordinates (Angstroms)
 Number     Number       Type             X           Y           Z
 ---------------------------------------------------------------------
      1         11           0       -0.046672    0.566912    1.446967
      2         11           0       -2.823248    0.501360    0.322051
      3         11           0       -0.866499    2.570473   -0.619161
      4         11           0        1.991340    1.681460   -0.450188
      5         11           0        3.346738   -0.982940   -0.170586
      6         11           0        0.602232   -2.119772    0.264279
      7         11           0       -2.203892   -2.217493   -0.793363
 ---------------------------------------------------------------------

 SCF Done:  E(UB3LYP) =  -1136.10530444     A.U. after   21 cycles

 The electronic state is 2-A.
 Alpha  occ. eigenvalues --  -38.44912 -38.44771 -38.44065 -38.44027 -38.43867
 Alpha  occ. eigenvalues --  -38.43866 -38.43222  -2.20797  -2.20739  -2.20040
 Alpha  occ. eigenvalues --   -2.19994  -2.19836  -2.19764  -2.19350  -1.14506
 Alpha  occ. eigenvalues --   -1.14487  -1.14468  -1.14418  -1.14411  -1.14398
 Alpha  occ. eigenvalues --   -1.13864  -1.13724  -1.13676  -1.13663  -1.13607
 Alpha  occ. eigenvalues --   -1.13600  -1.13569  -1.13560  -1.13466  -1.13417
 Alpha  occ. eigenvalues --   -1.13379  -1.13334  -1.12991  -1.12981  -1.12941
 Alpha  occ. eigenvalues --   -0.19370  -0.14343  -0.13340  -0.10050
 Alpha virt. eigenvalues --   -0.06649  -0.05844  -0.04554  -0.03487  -0.03004
 Alpha virt. eigenvalues --   -0.01918  -0.01314  -0.01230  -0.00628  -0.00401
 Alpha virt. eigenvalues --    0.00158   0.00305   0.00703   0.00778   0.00830

  Beta  occ. eigenvalues --  -38.44905 -38.44756 -38.44042 -38.44014 -38.43851
  Beta  occ. eigenvalues --  -38.43835 -38.43135  -2.20786  -2.20719  -2.20001
  Beta  occ. eigenvalues --   -2.19972  -2.19814  -2.19705  -2.19193  -1.14494
  Beta  occ. eigenvalues --   -1.14481  -1.14449  -1.14404  -1.14397  -1.14341
  Beta  occ. eigenvalues --   -1.13840  -1.13682  -1.13647  -1.13632  -1.13589
  Beta  occ. eigenvalues --   -1.13571  -1.13548  -1.13518  -1.13439  -1.13378
  Beta  occ. eigenvalues --   -1.13336  -1.13300  -1.12889  -1.12876  -1.12825
  Beta  occ. eigenvalues --   -0.18774  -0.13980  -0.13058
  Beta virt. eigenvalues --   -0.06516  -0.06440  -0.05618  -0.04418  -0.02738
  Beta virt. eigenvalues --   -0.02341  -0.01878  -0.01170  -0.00598  -0.00509
  Beta virt. eigenvalues --   -0.00333   0.00369   0.00411   0.00765   0.00883

 Mulliken charges and spin densities:
               1          2
     1  Na  -0.550684   0.210967
     2  Na   0.319726   0.258058
     3  Na   0.126505   0.064009
     4  Na  -0.168137   0.217458
     5  Na   0.602369  -0.025010
     6  Na  -0.288689   0.029714
     7  Na  -0.041089   0.244804
 Sum of Mulliken charges =  -0.00000   1.00000

 Dipole moment (field-independent basis, Debye):
    X=              0.3365    Y=             -0.0165    Z=              0.0665  Tot=              0.3434
 Quadrupole moment (field-independent basis, Debye-Ang):
   XX=            -56.2719   YY=            -66.0788   ZZ=            -75.7242
   XY=             -4.5758   XZ=             -0.3092   YZ=              0.1669

 Normal termination of Gaussian 16 at Mon Nov 13 16:07:57 2023.
