 Gaussian 16, Revision B.01,
 Gaussian 16:  ES64L-G16RevB.01 20-Dec-2017

 -------------------------
 #P B3LYP/6-311+g(d) force
 -------------------------

 ------------------------------
 Gaussian input prepared by ASE
 ------------------------------
 Symbolic Z-matrix:
 Charge =  0 Multiplicity = 2

                         Standard orientation:
 ---------------------------------------------------------------------
 Center     Atomic      Atomic             Coordinates (Angstroms)
 Number     Number       Type             X           Y           Z
 ---------------------------------------------------------------------
      1         11           0        0.069607   -0.290403    1.423003
      2         11           0        0.082790   -1.388388   -1.073047
      3         11           0       -2.391624   -1.480343    0.435357
      4         11           0       -1.524357    0.818062   -1.122812
      5         11           0       -0.373966    2.331260    0.827760
      6         11           0        1.528710    1.214696   -0.840637
      7         11           0        2.608841   -1.204885    0.350376
 ---------------------------------------------------------------------

 SCF Done:  E(UB3LYP) =  -1136.07405063     A.U. after   19 cycles

 The electronic state is 2-A.
 Alpha  occ. eigenvalues --  -38.43856 -38.43852 -38.43849 -38.43804 -38.43795
 Alpha  occ. eigenvalues --  -38.43644 -38.43465  -2.20239  -2.20069  -2.19969
 Alpha  occ. eigenvalues --   -2.19936  -2.19869  -2.19820  -2.19666  -1.14268
 Alpha  occ. eigenvalues --   -1.14192  -1.14069  -1.13985  -1.13900  -1.13761
 Alpha  occ. eigenvalues --   -1.13748  -1.13648  -1.13575  -1.13559  -1.13512
 Alpha  occ. eigenvalues --   -1.13479  -1.13452  -1.13422  -1.13412  -1.13377
 Alpha  occ. eigenvalues --   -1.13371  -1.13320  -1.13279  -1.13228  -1.13162
 Alpha  occ. eigenvalues --   -0.21508  -0.13794  -0.12934  -0.12106
 Alpha virt. eigenvalues --   -0.05189  -0.04315  -0.03893  -0.03502  -0.03111
 Alpha virt. eigenvalues --   -0.02628  -0.01130  -0.00639  -0.00175   0.00343
 Alpha virt. eigenvalues --    0.00840   0.00900   0.00970   0.01042   0.01125

  Beta  occ. eigenvalues --  -38.43842 -38.43831 -38.43785 -38.43772 -38.43757
  Beta  occ. eigenvalues --  -38.43594 -38.43433  -2.20102  -2.19991  -2.19922
  Beta  occ. eigenvalues --   -2.19871  -2.19844  -2.19804  -2.19615  -1.14206
  Beta  occ. eigenvalues --   -1.14117  -1.14004  -1.13907  -1.13824  -1.13720
  Beta  occ. eigenvalues --   -1.13682  -1.13611  -1.13553  -1.13520  -1.13466
  Beta  occ. eigenvalues --   -1.13426  -1.13400  -1.13377  -1.13355  -1.13342
  Beta  occ. eigenvalues --   -1.13321  -1.13269  -1.13244  -1.13153  -1.13134
  Beta  occ. eigenvalues --   -0.20658  -0.13521  -0.12685
  Beta virt. eigenvalues --   -0.07698  -0.05154  -0.04292  -0.03875  -0.02688
  Beta virt. eigenvalues --   -0.02341  -0.01424  -0.01086  -0.00592   0.00056
  Beta virt. eigenvalues --    0.00381   0.00868   0.00916   0.00969   0.01063

 Mulliken charges and spin densities:
               1          2
     1  Na  -0.879566   0.317638
     2  Na  -0.095484   0.379384
     3  Na   0.033078  -0.070218
     4  Na  -0.036486   0.208436
     5  Na   0.619271   0.016057
     6  Na  -0.630515   0.218962
     7  Na   0.989700  -0.070259
 Sum of Mulliken charges =  -0.00000   1.00000

 Dipole moment (field-independent basis, Debye):
    X=              0.0193    Y=             -0.1069    Z=              0.1651  Tot=              0.1976
 Quadrupole moment (field-independent basis, Debye-Ang):
   XX=            -59.0430   YY=            -67.7353   ZZ=            -68.8205
   XY=              0.0312   XZ=             -0.4683   YZ=             -0.5210

 Normal termination of Gaussian 16 at Mon Nov 13 19:43:38 2023.
