 Gaussian 16, Revision B.01,
 Gaussian 16:  ES64L-G16RevB.01 20-Dec-2017

 -------------------------
 #P B3LYP/6-311+g(d) force
 -------------------------

 ------------------------------
 Gaussian input prepared by ASE
 ------------------------------
 Symbolic Z-matrix:
 Charge =  0 Multiplicity = 2

                         Standard orientation:
 ---------------------------------------------------------------------
 Center     Atomic      Atomic             Coordinates (Angstroms)
 Number     Number       Type             X           Y           Z
 ---------------------------------------------------------------------
      1         11           0        0.570719   -0.712797   -0.983708
      2         11           0        0.045923    0.017295    1.863554
      3         11           0        3.229478   -1.933919   -0.344162
      4         11           0        2.603579    0.880577    0.468425
      5         11           0        0.258367    2.300368   -0.730736
      6         11           0       -2.059577    0.463831   -0.275886
      7         11           0       -4.648488   -1.015355    0.002514
 ---------------------------------------------------------------------

 SCF Done:  E(UB3LYP) =  -1136.09105317     A.U. after   26 cycles

 The electronic state is 2-A.
 Alpha  occ. eigenvalues --  -38.44967 -38.44718 -38.44366 -38.44324 -38.43416
 Alpha  occ. eigenvalues --  -38.43371 -38.43245  -2.20807  -2.20733  -2.20544
 Alpha  occ. eigenvalues --   -2.20353  -2.19449  -2.19323  -2.19289  -1.14609
 Alpha  occ. eigenvalues --   -1.14484  -1.14458  -1.14455  -1.14393  -1.14386
 Alpha  occ. eigenvalues --   -1.14318  -1.14200  -1.14165  -1.14010  -1.13968
 Alpha  occ. eigenvalues --   -1.13915  -1.13171  -1.13140  -1.13089  -1.13006
 Alpha  occ. eigenvalues --   -1.12989  -1.12969  -1.12934  -1.12897  -1.12845
 Alpha  occ. eigenvalues --   -0.20176  -0.14105  -0.11940  -0.11159
 Alpha virt. eigenvalues --   -0.07622  -0.04965  -0.03623  -0.03211  -0.02914
 Alpha virt. eigenvalues --   -0.02266  -0.02136  -0.01462  -0.00442  -0.00248
 Alpha virt. eigenvalues --   -0.00168   0.00346   0.00403   0.00724   0.00788

  Beta  occ. eigenvalues --  -38.45024 -38.44682 -38.44311 -38.44221 -38.43414
  Beta  occ. eigenvalues --  -38.43356 -38.43197  -2.20840  -2.20748  -2.20451
  Beta  occ. eigenvalues --   -2.20168  -2.19422  -2.19322  -2.19205  -1.14573
  Beta  occ. eigenvalues --   -1.14529  -1.14465  -1.14458  -1.14419  -1.14375
  Beta  occ. eigenvalues --   -1.14243  -1.14117  -1.14078  -1.13886  -1.13838
  Beta  occ. eigenvalues --   -1.13781  -1.13184  -1.13101  -1.13029  -1.13005
  Beta  occ. eigenvalues --   -1.12983  -1.12922  -1.12913  -1.12839  -1.12775
  Beta  occ. eigenvalues --   -0.19219  -0.14182  -0.11708
  Beta virt. eigenvalues --   -0.07377  -0.06894  -0.04886  -0.03271  -0.02809
  Beta virt. eigenvalues --   -0.02704  -0.01672  -0.01497  -0.01034  -0.00298
  Beta virt. eigenvalues --   -0.00174  -0.00101   0.00364   0.00606   0.00811

 Mulliken charges and spin densities:
               1          2
     1  Na  -1.297369   0.575823
     2  Na  -0.701332   0.414552
     3  Na   0.219325  -0.099511
     4  Na   0.901556   0.215151
     5  Na  -0.039719   0.181337
     6  Na   0.750785  -0.058203
     7  Na   0.166755  -0.229150
 Sum of Mulliken charges =  -0.00000   1.00000

 Dipole moment (field-independent basis, Debye):
    X=             -0.0323    Y=              0.3023    Z=              0.4140  Tot=              0.5136
 Quadrupole moment (field-independent basis, Debye-Ang):
   XX=            -54.0576   YY=            -66.4351   ZZ=            -73.9776
   XY=              3.3119   XZ=              0.5170   YZ=             -0.3619

 Normal termination of Gaussian 16 at Mon Nov 13 16:22:54 2023.
