 Gaussian 16, Revision B.01,
 Gaussian 16:  ES64L-G16RevB.01 20-Dec-2017

 -------------------------
 #P B3LYP/6-311+g(d) force
 -------------------------

 ------------------------------
 Gaussian input prepared by ASE
 ------------------------------
 Symbolic Z-matrix:
 Charge =  0 Multiplicity = 2

                         Standard orientation:
 ---------------------------------------------------------------------
 Center     Atomic      Atomic             Coordinates (Angstroms)
 Number     Number       Type             X           Y           Z
 ---------------------------------------------------------------------
      1         11           0       -0.282747    0.425786   -1.131454
      2         11           0        0.666778   -0.248135    1.630955
      3         11           0        1.369659    2.403073    0.408617
      4         11           0        2.626831   -0.112563   -0.634731
      5         11           0        0.645388   -2.356738   -0.498783
      6         11           0       -1.942823   -1.343883    0.628884
      7         11           0       -3.083086    1.232461   -0.403487
 ---------------------------------------------------------------------

 SCF Done:  E(UB3LYP) =  -1136.10159860     A.U. after   20 cycles

 The electronic state is 2-A.
 Alpha  occ. eigenvalues --  -38.44211 -38.44038 -38.43545 -38.43477 -38.43447
 Alpha  occ. eigenvalues --  -38.43088 -38.42893  -2.20120  -2.20097  -2.19645
 Alpha  occ. eigenvalues --   -2.19613  -2.19460  -2.19369  -2.18971  -1.13913
 Alpha  occ. eigenvalues --   -1.13837  -1.13782  -1.13776  -1.13769  -1.13708
 Alpha  occ. eigenvalues --   -1.13525  -1.13389  -1.13316  -1.13282  -1.13227
 Alpha  occ. eigenvalues --   -1.13182  -1.13173  -1.13067  -1.13054  -1.13038
 Alpha  occ. eigenvalues --   -1.12977  -1.12928  -1.12637  -1.12601  -1.12572
 Alpha  occ. eigenvalues --   -0.20554  -0.14055  -0.12599  -0.11206
 Alpha virt. eigenvalues --   -0.05807  -0.04787  -0.04016  -0.03395  -0.02685
 Alpha virt. eigenvalues --   -0.02120  -0.01564  -0.00844  -0.00127   0.00239
 Alpha virt. eigenvalues --    0.00332   0.00498   0.00906   0.00961   0.00985

  Beta  occ. eigenvalues --  -38.44205 -38.44010 -38.43524 -38.43464 -38.43363
  Beta  occ. eigenvalues --  -38.43038 -38.42874  -2.20088  -2.20074  -2.19585
  Beta  occ. eigenvalues --   -2.19490  -2.19439  -2.19284  -2.18943  -1.13885
  Beta  occ. eigenvalues --   -1.13829  -1.13762  -1.13751  -1.13699  -1.13697
  Beta  occ. eigenvalues --   -1.13469  -1.13320  -1.13253  -1.13223  -1.13188
  Beta  occ. eigenvalues --   -1.13129  -1.13100  -1.13053  -1.12989  -1.12979
  Beta  occ. eigenvalues --   -1.12890  -1.12879  -1.12619  -1.12586  -1.12500
  Beta  occ. eigenvalues --   -0.19791  -0.13773  -0.12283
  Beta virt. eigenvalues --   -0.07089  -0.05702  -0.04766  -0.03930  -0.02666
  Beta virt. eigenvalues --   -0.01962  -0.01536  -0.01020  -0.00763   0.00041
  Beta virt. eigenvalues --    0.00252   0.00385   0.00509   0.00937   0.00993

 Mulliken charges and spin densities:
               1          2
     1  Na  -0.371327   0.228140
     2  Na  -0.297475   0.341799
     3  Na  -0.077088   0.107811
     4  Na   0.636104   0.050896
     5  Na  -0.086130   0.152899
     6  Na   0.319413   0.132628
     7  Na  -0.123498  -0.014173
 Sum of Mulliken charges =  -0.00000   1.00000

 Dipole moment (field-independent basis, Debye):
    X=             -0.1496    Y=              0.3334    Z=              0.1464  Tot=              0.3937
 Quadrupole moment (field-independent basis, Debye-Ang):
   XX=            -55.6309   YY=            -65.0736   ZZ=            -72.7773
   XY=             -0.6888   XZ=             -1.3664   YZ=              0.7896

 Normal termination of Gaussian 16 at Mon Nov 13 17:05:11 2023.
