 Gaussian 16, Revision B.01,
 Gaussian 16:  ES64L-G16RevB.01 20-Dec-2017

 -------------------------
 #P B3LYP/6-311+g(d) force
 -------------------------

 ------------------------------
 Gaussian input prepared by ASE
 ------------------------------
 Symbolic Z-matrix:
 Charge =  0 Multiplicity = 2

                         Standard orientation:
 ---------------------------------------------------------------------
 Center     Atomic      Atomic             Coordinates (Angstroms)
 Number     Number       Type             X           Y           Z
 ---------------------------------------------------------------------
      1         11           0       -0.468677   -0.151968   -1.234460
      2         11           0        0.605148    2.552787   -0.445033
      3         11           0       -3.393994   -0.385657   -0.687846
      4         11           0       -1.540263    0.322004    1.536798
      5         11           0        1.472131    0.441156    1.518971
      6         11           0        2.519106   -0.489080   -1.143084
      7         11           0        0.806548   -2.289242    0.454655
 ---------------------------------------------------------------------

 SCF Done:  E(UB3LYP) =  -1136.10854345     A.U. after   21 cycles

 The electronic state is 2-A.
 Alpha  occ. eigenvalues --  -38.44405 -38.44091 -38.43771 -38.43580 -38.43290
 Alpha  occ. eigenvalues --  -38.42908 -38.42578  -2.20297  -2.20112  -2.19807
 Alpha  occ. eigenvalues --   -2.19720  -2.19519  -2.18923  -2.18525  -1.14038
 Alpha  occ. eigenvalues --   -1.13990  -1.13895  -1.13880  -1.13808  -1.13701
 Alpha  occ. eigenvalues --   -1.13632  -1.13495  -1.13382  -1.13373  -1.13343
 Alpha  occ. eigenvalues --   -1.13307  -1.13208  -1.13157  -1.13137  -1.12616
 Alpha  occ. eigenvalues --   -1.12561  -1.12518  -1.12222  -1.12184  -1.12121
 Alpha  occ. eigenvalues --   -0.20298  -0.13795  -0.12097  -0.11860
 Alpha virt. eigenvalues --   -0.05888  -0.04319  -0.03720  -0.03420  -0.03041
 Alpha virt. eigenvalues --   -0.02633  -0.01617  -0.00560  -0.00483   0.00306
 Alpha virt. eigenvalues --    0.00545   0.00602   0.00722   0.00979   0.01026

  Beta  occ. eigenvalues --  -38.44394 -38.44059 -38.43721 -38.43519 -38.43237
  Beta  occ. eigenvalues --  -38.42891 -38.42568  -2.20277  -2.20056  -2.19720
  Beta  occ. eigenvalues --   -2.19614  -2.19427  -2.18898  -2.18510  -1.14022
  Beta  occ. eigenvalues --   -1.13964  -1.13882  -1.13846  -1.13749  -1.13659
  Beta  occ. eigenvalues --   -1.13559  -1.13416  -1.13319  -1.13309  -1.13258
  Beta  occ. eigenvalues --   -1.13221  -1.13138  -1.13095  -1.13057  -1.12602
  Beta  occ. eigenvalues --   -1.12516  -1.12491  -1.12210  -1.12163  -1.12100
  Beta  occ. eigenvalues --   -0.19458  -0.13607  -0.11629
  Beta virt. eigenvalues --   -0.07794  -0.05766  -0.03820  -0.03696  -0.03225
  Beta virt. eigenvalues --   -0.02125  -0.01749  -0.01481  -0.00471  -0.00200
  Beta virt. eigenvalues --    0.00332   0.00604   0.00675   0.00807   0.00998

 Mulliken charges and spin densities:
               1          2
     1  Na  -0.143838   0.120225
     2  Na  -0.563904   0.266896
     3  Na   0.100722   0.186507
     4  Na  -0.185578   0.046708
     5  Na   0.242995   0.239766
     6  Na   0.891785  -0.061230
     7  Na  -0.342183   0.201128
 Sum of Mulliken charges =  -0.00000   1.00000

 Dipole moment (field-independent basis, Debye):
    X=             -0.3479    Y=              0.0244    Z=             -0.1091  Tot=              0.3655
 Quadrupole moment (field-independent basis, Debye-Ang):
   XX=            -55.3495   YY=            -71.9545   ZZ=            -66.4571
   XY=              0.5658   XZ=             -0.4300   YZ=             -1.2578

 Normal termination of Gaussian 16 at Mon Nov 13 17:32:57 2023.
