 Gaussian 16, Revision B.01,
 Gaussian 16:  ES64L-G16RevB.01 20-Dec-2017

 -------------------------
 #P B3LYP/6-311+g(d) force
 -------------------------

 ------------------------------
 Gaussian input prepared by ASE
 ------------------------------
 Symbolic Z-matrix:
 Charge =  0 Multiplicity = 2

                         Standard orientation:
 ---------------------------------------------------------------------
 Center     Atomic      Atomic             Coordinates (Angstroms)
 Number     Number       Type             X           Y           Z
 ---------------------------------------------------------------------
      1         11           0       -1.014138   -1.461182    0.213767
      2         11           0       -3.296975    0.060000   -0.068423
      3         11           0       -0.936011    1.480822   -0.108824
      4         11           0        2.035681    1.523834   -0.167732
      5         11           0        1.987144   -1.476212    0.036243
      6         11           0        0.585306   -0.275095   -1.826945
      7         11           0        0.638994    0.147833    1.921915
 ---------------------------------------------------------------------

 SCF Done:  E(UB3LYP) =  -1136.06577179     A.U. after   23 cycles

 The electronic state is 2-A.
 Alpha  occ. eigenvalues --  -38.45409 -38.44916 -38.44771 -38.43741 -38.43463
 Alpha  occ. eigenvalues --  -38.43169 -38.43126  -2.21366  -2.21166  -2.20971
 Alpha  occ. eigenvalues --   -2.19914  -2.19596  -2.19422  -2.19366  -1.15162
 Alpha  occ. eigenvalues --   -1.15057  -1.15017  -1.14945  -1.14866  -1.14776
 Alpha  occ. eigenvalues --   -1.14729  -1.14648  -1.14585  -1.13590  -1.13553
 Alpha  occ. eigenvalues --   -1.13514  -1.13328  -1.13245  -1.13219  -1.13185
 Alpha  occ. eigenvalues --   -1.13061  -1.13038  -1.13004  -1.12973  -1.12883
 Alpha  occ. eigenvalues --   -0.21704  -0.14574  -0.12572  -0.11874
 Alpha virt. eigenvalues --   -0.06380  -0.04141  -0.03996  -0.03646  -0.02740
 Alpha virt. eigenvalues --   -0.02564  -0.01738  -0.00425  -0.00205   0.00227
 Alpha virt. eigenvalues --    0.00598   0.00748   0.00870   0.00971   0.01093

  Beta  occ. eigenvalues --  -38.45416 -38.44820 -38.44668 -38.43722 -38.43445
  Beta  occ. eigenvalues --  -38.43147 -38.43104  -2.21382  -2.20992  -2.20784
  Beta  occ. eigenvalues --   -2.19888  -2.19572  -2.19391  -2.19335  -1.15171
  Beta  occ. eigenvalues --   -1.15072  -1.14942  -1.14917  -1.14740  -1.14645
  Beta  occ. eigenvalues --   -1.14614  -1.14512  -1.14445  -1.13577  -1.13505
  Beta  occ. eigenvalues --   -1.13464  -1.13317  -1.13205  -1.13177  -1.13168
  Beta  occ. eigenvalues --   -1.13032  -1.12967  -1.12963  -1.12909  -1.12870
  Beta  occ. eigenvalues --   -0.20831  -0.14293  -0.11537
  Beta virt. eigenvalues --   -0.08271  -0.06252  -0.04066  -0.03243  -0.03177
  Beta virt. eigenvalues --   -0.01943  -0.01802  -0.01652  -0.00387  -0.00013
  Beta virt. eigenvalues --    0.00270   0.00622   0.00729   0.01013   0.01088

 Mulliken charges and spin densities:
               1          2
     1  Na  -0.089406   0.121877
     2  Na  -0.359787  -0.156636
     3  Na  -0.170968   0.114939
     4  Na   0.170216  -0.007698
     5  Na   0.219761  -0.016225
     6  Na   0.133287   0.502418
     7  Na   0.096897   0.441325
 Sum of Mulliken charges =  -0.00000   1.00000

 Dipole moment (field-independent basis, Debye):
    X=             -0.5809    Y=              0.0751    Z=              0.0874  Tot=              0.5922
 Quadrupole moment (field-independent basis, Debye-Ang):
   XX=            -52.2986   YY=            -77.1882   ZZ=            -66.6992
   XY=              0.1809   XZ=              0.3188   YZ=             -1.1182

 Normal termination of Gaussian 16 at Mon Nov 13 14:52:05 2023.
