 Gaussian 16, Revision B.01,
 Gaussian 16:  ES64L-G16RevB.01 20-Dec-2017

 -------------------------
 #P B3LYP/6-311+g(d) force
 -------------------------

 ------------------------------
 Gaussian input prepared by ASE
 ------------------------------
 Symbolic Z-matrix:
 Charge =  0 Multiplicity = 2

                         Standard orientation:
 ---------------------------------------------------------------------
 Center     Atomic      Atomic             Coordinates (Angstroms)
 Number     Number       Type             X           Y           Z
 ---------------------------------------------------------------------
      1         11           0       -1.023349   -1.688748   -0.625253
      2         11           0        2.734585    2.683321   -0.404646
      3         11           0       -3.430115    0.104535   -0.621648
      4         11           0       -1.760627    2.218534    0.698993
      5         11           0        0.722845    0.570958    0.300253
      6         11           0        0.817322   -2.074152    1.708565
      7         11           0        1.939340   -1.814448   -1.056264
 ---------------------------------------------------------------------

 SCF Done:  E(UB3LYP) =  -1136.10187933     A.U. after   22 cycles

 The electronic state is 2-A.
 Alpha  occ. eigenvalues --  -38.44686 -38.44439 -38.44166 -38.44039 -38.43899
 Alpha  occ. eigenvalues --  -38.43704 -38.42765  -2.20560  -2.20427  -2.20057
 Alpha  occ. eigenvalues --   -2.19911  -2.19833  -2.19777  -2.18944  -1.14277
 Alpha  occ. eigenvalues --   -1.14238  -1.14193  -1.14182  -1.14096  -1.14041
 Alpha  occ. eigenvalues --   -1.13794  -1.13688  -1.13679  -1.13664  -1.13566
 Alpha  occ. eigenvalues --   -1.13542  -1.13500  -1.13484  -1.13480  -1.13463
 Alpha  occ. eigenvalues --   -1.13385  -1.13332  -1.12624  -1.12591  -1.12582
 Alpha  occ. eigenvalues --   -0.19232  -0.13942  -0.12480  -0.10415
 Alpha virt. eigenvalues --   -0.06104  -0.05771  -0.04626  -0.03121  -0.02609
 Alpha virt. eigenvalues --   -0.02027  -0.01504  -0.01267  -0.00481  -0.00154
 Alpha virt. eigenvalues --   -0.00023   0.00301   0.00582   0.00759   0.00793

  Beta  occ. eigenvalues --  -38.44673 -38.44405 -38.44156 -38.44039 -38.43829
  Beta  occ. eigenvalues --  -38.43671 -38.42737  -2.20536  -2.20368  -2.20039
  Beta  occ. eigenvalues --   -2.19834  -2.19783  -2.19722  -2.18901  -1.14259
  Beta  occ. eigenvalues --   -1.14223  -1.14162  -1.14158  -1.14026  -1.13998
  Beta  occ. eigenvalues --   -1.13773  -1.13678  -1.13658  -1.13592  -1.13541
  Beta  occ. eigenvalues --   -1.13483  -1.13473  -1.13459  -1.13444  -1.13404
  Beta  occ. eigenvalues --   -1.13323  -1.13270  -1.12595  -1.12575  -1.12483
  Beta  occ. eigenvalues --   -0.18519  -0.13756  -0.12272
  Beta virt. eigenvalues --   -0.06702  -0.05744  -0.05446  -0.04391  -0.02698
  Beta virt. eigenvalues --   -0.02220  -0.01713  -0.01274  -0.00798  -0.00246
  Beta virt. eigenvalues --   -0.00015   0.00139   0.00409   0.00679   0.00808

 Mulliken charges and spin densities:
               1          2
     1  Na   1.121829   0.332696
     2  Na   0.224679  -0.037806
     3  Na  -0.399215   0.047069
     4  Na   0.536406   0.016035
     5  Na  -3.058286   0.478276
     6  Na   0.645400  -0.009169
     7  Na   0.929188   0.172898
 Sum of Mulliken charges =  -0.00000   1.00000

 Dipole moment (field-independent basis, Debye):
    X=             -0.1195    Y=              0.0148    Z=              0.1314  Tot=              0.1782
 Quadrupole moment (field-independent basis, Debye-Ang):
   XX=            -56.6166   YY=            -61.5474   ZZ=            -73.5638
   XY=             -3.2843   XZ=             -1.4326   YZ=             -0.2163

 Normal termination of Gaussian 16 at Mon Nov 13 17:31:45 2023.
