 Gaussian 16, Revision B.01,
 Gaussian 16:  ES64L-G16RevB.01 20-Dec-2017

 -------------------------
 #P B3LYP/6-311+g(d) force
 -------------------------

 ------------------------------
 Gaussian input prepared by ASE
 ------------------------------
 Symbolic Z-matrix:
 Charge =  0 Multiplicity = 2

                         Standard orientation:
 ---------------------------------------------------------------------
 Center     Atomic      Atomic             Coordinates (Angstroms)
 Number     Number       Type             X           Y           Z
 ---------------------------------------------------------------------
      1         11           0        0.435644    1.457285    1.532084
      2         11           0        0.456219    1.545249   -1.464437
      3         11           0       -2.151990    1.509332    0.017551
      4         11           0       -2.165252   -1.496381   -0.020138
      5         11           0        0.428966   -1.461015   -1.532388
      6         11           0        0.441740   -1.545756    1.465439
      7         11           0        2.554675   -0.008712    0.001889
 ---------------------------------------------------------------------

 SCF Done:  E(UB3LYP) =  -1136.10706494     A.U. after   19 cycles

 The electronic state is 2-A.
 Alpha  occ. eigenvalues --  -38.43847 -38.43844 -38.43796 -38.43795 -38.43475
 Alpha  occ. eigenvalues --  -38.43327 -38.43325  -2.19944  -2.19940  -2.19889
 Alpha  occ. eigenvalues --   -2.19882  -2.19550  -2.19315  -2.19305  -1.13822
 Alpha  occ. eigenvalues --   -1.13728  -1.13716  -1.13713  -1.13639  -1.13613
 Alpha  occ. eigenvalues --   -1.13567  -1.13517  -1.13469  -1.13461  -1.13454
 Alpha  occ. eigenvalues --   -1.13404  -1.13192  -1.13176  -1.13130  -1.13083
 Alpha  occ. eigenvalues --   -1.12974  -1.12969  -1.12948  -1.12939  -1.12822
 Alpha  occ. eigenvalues --   -0.20842  -0.13333  -0.12766  -0.12633
 Alpha virt. eigenvalues --   -0.04841  -0.04284  -0.04032  -0.03711  -0.03658
 Alpha virt. eigenvalues --   -0.03487  -0.00827  -0.00352  -0.00313   0.00387
 Alpha virt. eigenvalues --    0.00783   0.00876   0.01084   0.01196   0.01264

  Beta  occ. eigenvalues --  -38.43788 -38.43785 -38.43740 -38.43739 -38.43462
  Beta  occ. eigenvalues --  -38.43324 -38.43321  -2.19840  -2.19835  -2.19791
  Beta  occ. eigenvalues --   -2.19783  -2.19534  -2.19312  -2.19301  -1.13767
  Beta  occ. eigenvalues --   -1.13660  -1.13633  -1.13615  -1.13570  -1.13546
  Beta  occ. eigenvalues --   -1.13499  -1.13450  -1.13403  -1.13387  -1.13369
  Beta  occ. eigenvalues --   -1.13308  -1.13182  -1.13124  -1.13103  -1.13085
  Beta  occ. eigenvalues --   -1.12971  -1.12945  -1.12938  -1.12909  -1.12823
  Beta  occ. eigenvalues --   -0.19973  -0.13012  -0.12536
  Beta virt. eigenvalues --   -0.08360  -0.04790  -0.04276  -0.03910  -0.03050
  Beta virt. eigenvalues --   -0.02842  -0.02216  -0.00779  -0.00371  -0.00058
  Beta virt. eigenvalues --    0.00422   0.00784   0.00883   0.01117   0.01238

 Mulliken charges and spin densities:
               1          2
     1  Na  -0.119110   0.297549
     2  Na  -0.120099   0.288905
     3  Na   0.024837   0.015173
     4  Na   0.024686   0.014042
     5  Na  -0.121582   0.299022
     6  Na  -0.118300   0.287553
     7  Na   0.429569  -0.202243
 Sum of Mulliken charges =  -0.00000   1.00000

 Dipole moment (field-independent basis, Debye):
    X=              0.0203    Y=             -0.0025    Z=             -0.0030  Tot=              0.0206
 Quadrupole moment (field-independent basis, Debye-Ang):
   XX=            -63.5292   YY=            -70.7887   ZZ=            -64.2117
   XY=             -0.0028   XZ=              0.0033   YZ=             -0.1264

 Normal termination of Gaussian 16 at Mon Nov 13 19:59:04 2023.
