 Gaussian 16, Revision B.01,
 Gaussian 16:  ES64L-G16RevB.01 20-Dec-2017

 -------------------------
 #P B3LYP/6-311+g(d) force
 -------------------------

 ------------------------------
 Gaussian input prepared by ASE
 ------------------------------
 Symbolic Z-matrix:
 Charge =  0 Multiplicity = 2

                         Standard orientation:
 ---------------------------------------------------------------------
 Center     Atomic      Atomic             Coordinates (Angstroms)
 Number     Number       Type             X           Y           Z
 ---------------------------------------------------------------------
      1         11           0        1.077426   -0.204166    1.468968
      2         11           0       -1.710414    0.239642    1.390972
      3         11           0       -0.231714    2.278600    0.081155
      4         11           0       -2.139621    0.298295   -1.403700
      5         11           0       -0.987499   -2.187759    0.148577
      6         11           0        0.614167   -0.387143   -1.321955
      7         11           0        3.377655   -0.037469   -0.364017
 ---------------------------------------------------------------------

 SCF Done:  E(UB3LYP) =  -1136.08619234     A.U. after   24 cycles

 The electronic state is 2-A.
 Alpha  occ. eigenvalues --  -38.44653 -38.44347 -38.44262 -38.43882 -38.43782
 Alpha  occ. eigenvalues --  -38.42661 -38.42426  -2.20554  -2.20509  -2.20446
 Alpha  occ. eigenvalues --   -2.20097  -2.20048  -2.18752  -2.18480  -1.14404
 Alpha  occ. eigenvalues --   -1.14385  -1.14322  -1.14265  -1.14217  -1.14143
 Alpha  occ. eigenvalues --   -1.14140  -1.13991  -1.13974  -1.13939  -1.13704
 Alpha  occ. eigenvalues --   -1.13689  -1.13648  -1.13606  -1.13558  -1.12462
 Alpha  occ. eigenvalues --   -1.12402  -1.12327  -1.12214  -1.12131  -1.12064
 Alpha  occ. eigenvalues --   -0.21147  -0.13898  -0.12589  -0.11997
 Alpha virt. eigenvalues --   -0.05994  -0.04062  -0.03582  -0.03447  -0.02999
 Alpha virt. eigenvalues --   -0.02794  -0.01614  -0.00475  -0.00318   0.00286
 Alpha virt. eigenvalues --    0.00579   0.00718   0.00911   0.01023   0.01048

  Beta  occ. eigenvalues --  -38.44647 -38.44293 -38.44200 -38.43818 -38.43722
  Beta  occ. eigenvalues --  -38.42648 -38.42415  -2.20544  -2.20404  -2.20348
  Beta  occ. eigenvalues --   -2.19990  -2.19942  -2.18735  -2.18466  -1.14353
  Beta  occ. eigenvalues --   -1.14323  -1.14257  -1.14220  -1.14143  -1.14136
  Beta  occ. eigenvalues --   -1.14068  -1.13925  -1.13908  -1.13863  -1.13636
  Beta  occ. eigenvalues --   -1.13590  -1.13574  -1.13532  -1.13466  -1.12455
  Beta  occ. eigenvalues --   -1.12366  -1.12294  -1.12208  -1.12082  -1.12055
  Beta  occ. eigenvalues --   -0.20298  -0.13743  -0.11662
  Beta virt. eigenvalues --   -0.08146  -0.05893  -0.03468  -0.03450  -0.03367
  Beta virt. eigenvalues --   -0.01995  -0.01934  -0.01490  -0.00306  -0.00140
  Beta virt. eigenvalues --    0.00320   0.00647   0.00857   0.00909   0.01026

 Mulliken charges and spin densities:
               1          2
     1  Na  -0.062834   0.101878
     2  Na   1.038607   0.169930
     3  Na  -1.007361  -0.043184
     4  Na   0.384366   0.046656
     5  Na  -0.902217   0.238363
     6  Na   0.647943   0.445744
     7  Na  -0.098504   0.040613
 Sum of Mulliken charges =  -0.00000   1.00000

 Dipole moment (field-independent basis, Debye):
    X=              0.5442    Y=              0.1548    Z=             -0.2332  Tot=              0.6119
 Quadrupole moment (field-independent basis, Debye-Ang):
   XX=            -54.6207   YY=            -73.9843   ZZ=            -65.9230
   XY=              0.6576   XZ=              0.0905   YZ=             -0.9045

 Normal termination of Gaussian 16 at Mon Nov 13 19:40:26 2023.
