 Gaussian 16, Revision B.01,
 Gaussian 16:  ES64L-G16RevB.01 20-Dec-2017

 -------------------------
 #P B3LYP/6-311+g(d) force
 -------------------------

 ------------------------------
 Gaussian input prepared by ASE
 ------------------------------
 Symbolic Z-matrix:
 Charge =  0 Multiplicity = 2

                         Standard orientation:
 ---------------------------------------------------------------------
 Center     Atomic      Atomic             Coordinates (Angstroms)
 Number     Number       Type             X           Y           Z
 ---------------------------------------------------------------------
      1         11           0       -0.727922   -0.115665    1.498929
      2         11           0        1.163560    1.771456    0.122474
      3         11           0        3.482776   -0.114976   -0.124184
      4         11           0        1.174196   -2.011851    0.141930
      5         11           0       -1.776111    2.222306   -0.064125
      6         11           0       -0.543144   -0.131143   -1.465129
      7         11           0       -2.773354   -1.620126   -0.109896
 ---------------------------------------------------------------------

 SCF Done:  E(UB3LYP) =  -1136.10568345     A.U. after   20 cycles

 The electronic state is 2-A.
 Alpha  occ. eigenvalues --  -38.44982 -38.44309 -38.43613 -38.43369 -38.43227
 Alpha  occ. eigenvalues --  -38.43055 -38.43008  -2.20863  -2.20215  -2.19602
 Alpha  occ. eigenvalues --   -2.19427  -2.19370  -2.19255  -2.19091  -1.14564
 Alpha  occ. eigenvalues --   -1.14542  -1.14484  -1.13946  -1.13902  -1.13814
 Alpha  occ. eigenvalues --   -1.13431  -1.13318  -1.13296  -1.13193  -1.13100
 Alpha  occ. eigenvalues --   -1.13081  -1.13072  -1.13008  -1.12952  -1.12914
 Alpha  occ. eigenvalues --   -1.12840  -1.12805  -1.12736  -1.12691  -1.12676
 Alpha  occ. eigenvalues --   -0.20232  -0.14098  -0.12461  -0.10610
 Alpha virt. eigenvalues --   -0.06466  -0.05061  -0.03795  -0.03259  -0.02433
 Alpha virt. eigenvalues --   -0.02117  -0.01811  -0.01143  -0.00065   0.00072
 Alpha virt. eigenvalues --    0.00266   0.00299   0.00832   0.00914   0.00999

  Beta  occ. eigenvalues --  -38.44985 -38.44300 -38.43599 -38.43358 -38.43155
  Beta  occ. eigenvalues --  -38.42992 -38.42975  -2.20871  -2.20202  -2.19581
  Beta  occ. eigenvalues --   -2.19358  -2.19295  -2.19113  -2.19067  -1.14573
  Beta  occ. eigenvalues --   -1.14548  -1.14475  -1.13940  -1.13857  -1.13808
  Beta  occ. eigenvalues --   -1.13402  -1.13274  -1.13231  -1.13184  -1.13047
  Beta  occ. eigenvalues --   -1.13034  -1.13015  -1.12949  -1.12872  -1.12846
  Beta  occ. eigenvalues --   -1.12746  -1.12720  -1.12689  -1.12670  -1.12612
  Beta  occ. eigenvalues --   -0.19483  -0.13864  -0.12139
  Beta virt. eigenvalues --   -0.06562  -0.06361  -0.05059  -0.03810  -0.02503
  Beta virt. eigenvalues --   -0.02071  -0.01607  -0.01119  -0.00805  -0.00007
  Beta virt. eigenvalues --    0.00181   0.00246   0.00339   0.00847   0.00919

 Mulliken charges and spin densities:
               1          2
     1  Na  -0.600493   0.266819
     2  Na   0.207072   0.195106
     3  Na  -0.157598  -0.067371
     4  Na   0.358894   0.126649
     5  Na   0.688443   0.016071
     6  Na  -0.852227   0.518835
     7  Na   0.355908  -0.056109
 Sum of Mulliken charges =  -0.00000   1.00000

 Dipole moment (field-independent basis, Debye):
    X=              0.1873    Y=             -0.2492    Z=             -0.0103  Tot=              0.3119
 Quadrupole moment (field-independent basis, Debye-Ang):
   XX=            -47.5193   YY=            -67.6500   ZZ=            -75.9578
   XY=              0.1217   XZ=             -0.1523   YZ=             -0.0083

 Normal termination of Gaussian 16 at Mon Nov 13 19:03:46 2023.
