 Gaussian 16, Revision B.01,
 Gaussian 16:  ES64L-G16RevB.01 20-Dec-2017

 -------------------------
 #P B3LYP/6-311+g(d) force
 -------------------------

 ------------------------------
 Gaussian input prepared by ASE
 ------------------------------
 Symbolic Z-matrix:
 Charge =  0 Multiplicity = 2

                         Standard orientation:
 ---------------------------------------------------------------------
 Center     Atomic      Atomic             Coordinates (Angstroms)
 Number     Number       Type             X           Y           Z
 ---------------------------------------------------------------------
      1         11           0       -0.650726    0.605083   -1.240547
      2         11           0        1.543778   -0.583512    1.597389
      3         11           0        0.878819    2.229588    0.775982
      4         11           0        2.344818    0.439934   -1.111510
      5         11           0        0.710175   -2.051609   -0.885710
      6         11           0       -1.360822   -1.166574    1.081174
      7         11           0       -3.466042    0.527089   -0.216779
 ---------------------------------------------------------------------

 SCF Done:  E(UB3LYP) =  -1136.10226923     A.U. after   23 cycles

 The electronic state is 2-A.
 Alpha  occ. eigenvalues --  -38.44494 -38.44077 -38.43866 -38.43393 -38.43388
 Alpha  occ. eigenvalues --  -38.43130 -38.42957  -2.20377  -2.20169  -2.19981
 Alpha  occ. eigenvalues --   -2.19583  -2.19469  -2.19126  -2.19042  -1.14103
 Alpha  occ. eigenvalues --   -1.14062  -1.13985  -1.13954  -1.13872  -1.13803
 Alpha  occ. eigenvalues --   -1.13709  -1.13611  -1.13580  -1.13371  -1.13262
 Alpha  occ. eigenvalues --   -1.13233  -1.13131  -1.13101  -1.13046  -1.12806
 Alpha  occ. eigenvalues --   -1.12760  -1.12723  -1.12716  -1.12653  -1.12641
 Alpha  occ. eigenvalues --   -0.20634  -0.13910  -0.12266  -0.11988
 Alpha virt. eigenvalues --   -0.06085  -0.04159  -0.03783  -0.03473  -0.03036
 Alpha virt. eigenvalues --   -0.02805  -0.01653  -0.00442  -0.00380   0.00265
 Alpha virt. eigenvalues --    0.00543   0.00633   0.00700   0.00977   0.01042

  Beta  occ. eigenvalues --  -38.44495 -38.44038 -38.43798 -38.43356 -38.43344
  Beta  occ. eigenvalues --  -38.43107 -38.42925  -2.20380  -2.20104  -2.19859
  Beta  occ. eigenvalues --   -2.19499  -2.19415  -2.19088  -2.18989  -1.14102
  Beta  occ. eigenvalues --   -1.14056  -1.13987  -1.13915  -1.13794  -1.13746
  Beta  occ. eigenvalues --   -1.13623  -1.13514  -1.13501  -1.13327  -1.13199
  Beta  occ. eigenvalues --   -1.13159  -1.13093  -1.13038  -1.12997  -1.12781
  Beta  occ. eigenvalues --   -1.12706  -1.12696  -1.12683  -1.12622  -1.12561
  Beta  occ. eigenvalues --   -0.19787  -0.13743  -0.11788
  Beta virt. eigenvalues --   -0.07827  -0.05957  -0.04030  -0.03547  -0.03072
  Beta virt. eigenvalues --   -0.02297  -0.01827  -0.01427  -0.00386  -0.00097
  Beta virt. eigenvalues --    0.00316   0.00582   0.00637   0.00847   0.00992

 Mulliken charges and spin densities:
               1          2
     1  Na  -0.175192   0.294709
     2  Na   0.053515   0.458865
     3  Na  -0.593508   0.138629
     4  Na   1.091099  -0.201850
     5  Na  -0.290092   0.200789
     6  Na  -0.063356   0.100276
     7  Na  -0.022465   0.008582
 Sum of Mulliken charges =  -0.00000   1.00000

 Dipole moment (field-independent basis, Debye):
    X=             -0.3989    Y=              0.1187    Z=              0.1382  Tot=              0.4385
 Quadrupole moment (field-independent basis, Debye-Ang):
   XX=            -54.9884   YY=            -73.0134   ZZ=            -66.8917
   XY=             -1.2550   XZ=             -1.0139   YZ=              1.4521

 Normal termination of Gaussian 16 at Mon Nov 13 17:04:51 2023.
