 Gaussian 16, Revision B.01,
 Gaussian 16:  ES64L-G16RevB.01 20-Dec-2017

 -------------------------
 #P B3LYP/6-311+g(d) force
 -------------------------

 ------------------------------
 Gaussian input prepared by ASE
 ------------------------------
 Symbolic Z-matrix:
 Charge =  0 Multiplicity = 2

                         Standard orientation:
 ---------------------------------------------------------------------
 Center     Atomic      Atomic             Coordinates (Angstroms)
 Number     Number       Type             X           Y           Z
 ---------------------------------------------------------------------
      1         11           0       -1.170957   -0.071821    1.793854
      2         11           0       -1.247439   -2.158844   -0.047485
      3         11           0        4.140809   -0.092610   -0.106784
      4         11           0        1.311455   -0.416098    0.528806
      5         11           0       -0.286136   -0.194486   -1.766398
      6         11           0       -0.103571    2.304187    0.087221
      7         11           0       -2.644161    0.629672   -0.489215
 ---------------------------------------------------------------------

 SCF Done:  E(UB3LYP) =  -1136.07890492     A.U. after   23 cycles

 The electronic state is 2-A.
 Alpha  occ. eigenvalues --  -38.45688 -38.44714 -38.44671 -38.44408 -38.43333
 Alpha  occ. eigenvalues --  -38.42737 -38.42478  -2.21472  -2.20875  -2.20816
 Alpha  occ. eigenvalues --   -2.20615  -2.19524  -2.18849  -2.18498  -1.15192
 Alpha  occ. eigenvalues --   -1.15112  -1.15104  -1.14796  -1.14695  -1.14613
 Alpha  occ. eigenvalues --   -1.14486  -1.14385  -1.14368  -1.14301  -1.14221
 Alpha  occ. eigenvalues --   -1.14124  -1.13236  -1.13192  -1.13075  -1.12555
 Alpha  occ. eigenvalues --   -1.12509  -1.12421  -1.12224  -1.12149  -1.12099
 Alpha  occ. eigenvalues --   -0.20968  -0.13589  -0.12080  -0.11997
 Alpha virt. eigenvalues --   -0.07263  -0.03631  -0.03498  -0.03346  -0.02745
 Alpha virt. eigenvalues --   -0.02652  -0.02420  -0.00566  -0.00423   0.00040
 Alpha virt. eigenvalues --    0.00280   0.00393   0.00457   0.00863   0.01148

  Beta  occ. eigenvalues --  -38.45704 -38.44683 -38.44578 -38.44311 -38.43304
  Beta  occ. eigenvalues --  -38.42722 -38.42467  -2.21502  -2.20783  -2.20692
  Beta  occ. eigenvalues --   -2.20439  -2.19477  -2.18829  -2.18485  -1.15212
  Beta  occ. eigenvalues --   -1.15130  -1.15124  -1.14727  -1.14592  -1.14508
  Beta  occ. eigenvalues --   -1.14386  -1.14316  -1.14264  -1.14204  -1.14104
  Beta  occ. eigenvalues --   -1.14010  -1.13219  -1.13094  -1.13049  -1.12550
  Beta  occ. eigenvalues --   -1.12445  -1.12397  -1.12221  -1.12097  -1.12094
  Beta  occ. eigenvalues --   -0.20093  -0.13470  -0.11621
  Beta virt. eigenvalues --   -0.07744  -0.07112  -0.03582  -0.03271  -0.02834
  Beta virt. eigenvalues --   -0.02419  -0.01771  -0.01637  -0.00511  -0.00172
  Beta virt. eigenvalues --    0.00074   0.00266   0.00435   0.00635   0.00897

 Mulliken charges and spin densities:
               1          2
     1  Na  -0.210303   0.371277
     2  Na  -0.554850  -0.199334
     3  Na   0.510501  -0.046057
     4  Na   0.561220   0.303962
     5  Na  -0.128837   0.638577
     6  Na  -0.650986  -0.159710
     7  Na   0.473254   0.091285
 Sum of Mulliken charges =  -0.00000   1.00000

 Dipole moment (field-independent basis, Debye):
    X=              0.8099    Y=              0.3475    Z=             -0.2164  Tot=              0.9075
 Quadrupole moment (field-independent basis, Debye-Ang):
   XX=            -48.3955   YY=            -74.1573   ZZ=            -69.0556
   XY=              0.7642   XZ=             -1.1573   YZ=              0.0248

 Normal termination of Gaussian 16 at Mon Nov 13 19:50:03 2023.
