 Gaussian 16, Revision B.01,
 Gaussian 16:  ES64L-G16RevB.01 20-Dec-2017

 -------------------------
 #P B3LYP/6-311+g(d) force
 -------------------------

 ------------------------------
 Gaussian input prepared by ASE
 ------------------------------
 Symbolic Z-matrix:
 Charge =  0 Multiplicity = 2

                         Standard orientation:
 ---------------------------------------------------------------------
 Center     Atomic      Atomic             Coordinates (Angstroms)
 Number     Number       Type             X           Y           Z
 ---------------------------------------------------------------------
      1         11           0        0.469979   -1.162081   -0.053045
      2         11           0       -1.602209    0.350931    1.510379
      3         11           0       -2.361986   -2.133563    0.020949
      4         11           0       -1.682812    0.369930   -1.479383
      5         11           0       -0.473193    2.688781   -0.000931
      6         11           0        2.194245    1.301561    0.002084
      7         11           0        3.455976   -1.415559   -0.000053
 ---------------------------------------------------------------------

 SCF Done:  E(UB3LYP) =  -1136.10428755     A.U. after   20 cycles

 The electronic state is 2-A.
 Alpha  occ. eigenvalues --  -38.44363 -38.44182 -38.43932 -38.43595 -38.43569
 Alpha  occ. eigenvalues --  -38.43445 -38.43048  -2.20253  -2.20155  -2.19925
 Alpha  occ. eigenvalues --   -2.19706  -2.19671  -2.19607  -2.19044  -1.14048
 Alpha  occ. eigenvalues --   -1.13948  -1.13881  -1.13875  -1.13780  -1.13760
 Alpha  occ. eigenvalues --   -1.13741  -1.13600  -1.13592  -1.13529  -1.13416
 Alpha  occ. eigenvalues --   -1.13398  -1.13286  -1.13267  -1.13223  -1.13217
 Alpha  occ. eigenvalues --   -1.13201  -1.13172  -1.12710  -1.12687  -1.12664
 Alpha  occ. eigenvalues --   -0.20001  -0.14344  -0.12795  -0.10540
 Alpha virt. eigenvalues --   -0.06119  -0.05503  -0.04221  -0.03199  -0.02533
 Alpha virt. eigenvalues --   -0.02053  -0.01668  -0.01188  -0.00332  -0.00096
 Alpha virt. eigenvalues --    0.00242   0.00314   0.00801   0.00929   0.00933

  Beta  occ. eigenvalues --  -38.44368 -38.44179 -38.43919 -38.43522 -38.43495
  Beta  occ. eigenvalues --  -38.43422 -38.43036  -2.20261  -2.20152  -2.19908
  Beta  occ. eigenvalues --   -2.19585  -2.19563  -2.19536  -2.19029  -1.14052
  Beta  occ. eigenvalues --   -1.13954  -1.13881  -1.13875  -1.13757  -1.13747
  Beta  occ. eigenvalues --   -1.13736  -1.13591  -1.13524  -1.13471  -1.13331
  Beta  occ. eigenvalues --   -1.13305  -1.13204  -1.13198  -1.13171  -1.13137
  Beta  occ. eigenvalues --   -1.13116  -1.13109  -1.12703  -1.12680  -1.12606
  Beta  occ. eigenvalues --   -0.19266  -0.14177  -0.12515
  Beta virt. eigenvalues --   -0.06424  -0.05898  -0.05492  -0.04245  -0.02570
  Beta virt. eigenvalues --   -0.01839  -0.01792  -0.01210  -0.00779  -0.00341
  Beta virt. eigenvalues --    0.00198   0.00266   0.00404   0.00819   0.00935

 Mulliken charges and spin densities:
               1          2
     1  Na  -0.745907   0.620141
     2  Na  -0.603305   0.200855
     3  Na   0.759229  -0.150542
     4  Na  -0.546823   0.170700
     5  Na   0.861437   0.171100
     6  Na  -0.459586   0.059416
     7  Na   0.734955  -0.071669
 Sum of Mulliken charges =  -0.00000   1.00000

 Dipole moment (field-independent basis, Debye):
    X=              0.5487    Y=             -0.3157    Z=              0.0195  Tot=              0.6333
 Quadrupole moment (field-independent basis, Debye-Ang):
   XX=            -53.8942   YY=            -63.1014   ZZ=            -75.8595
   XY=              0.8910   XZ=              0.1007   YZ=             -0.0837

 Normal termination of Gaussian 16 at Mon Nov 13 16:33:14 2023.
