 Gaussian 16, Revision B.01,
 Gaussian 16:  ES64L-G16RevB.01 20-Dec-2017

 -------------------------
 #P B3LYP/6-311+g(d) force
 -------------------------

 ------------------------------
 Gaussian input prepared by ASE
 ------------------------------
 Symbolic Z-matrix:
 Charge =  0 Multiplicity = 2

                         Standard orientation:
 ---------------------------------------------------------------------
 Center     Atomic      Atomic             Coordinates (Angstroms)
 Number     Number       Type             X           Y           Z
 ---------------------------------------------------------------------
      1         11           0       -0.382604    1.056995    1.286944
      2         11           0       -2.612822   -2.772821    0.202026
      3         11           0       -2.079113    2.983845   -0.266996
      4         11           0       -2.286183    0.037696   -0.796790
      5         11           0        0.126126   -1.575252   -0.050237
      6         11           0        2.190504    0.599747   -0.189632
      7         11           0        5.044092   -0.330211   -0.185316
 ---------------------------------------------------------------------

 SCF Done:  E(UB3LYP) =  -1136.10303888     A.U. after   20 cycles

 The electronic state is 2-A.
 Alpha  occ. eigenvalues --  -38.44169 -38.44052 -38.43942 -38.43930 -38.43897
 Alpha  occ. eigenvalues --  -38.43572 -38.43218  -2.20267  -2.20021  -2.19978
 Alpha  occ. eigenvalues --   -2.19895  -2.19852  -2.19486  -2.19206  -1.14075
 Alpha  occ. eigenvalues --   -1.13975  -1.13914  -1.13834  -1.13729  -1.13685
 Alpha  occ. eigenvalues --   -1.13654  -1.13609  -1.13580  -1.13565  -1.13513
 Alpha  occ. eigenvalues --   -1.13508  -1.13473  -1.13464  -1.13427  -1.13134
 Alpha  occ. eigenvalues --   -1.13129  -1.13098  -1.12898  -1.12860  -1.12820
 Alpha  occ. eigenvalues --   -0.19223  -0.14103  -0.13003  -0.10747
 Alpha virt. eigenvalues --   -0.06342  -0.04988  -0.04632  -0.03410  -0.02618
 Alpha virt. eigenvalues --   -0.02282  -0.01878  -0.01035  -0.00900  -0.00404
 Alpha virt. eigenvalues --   -0.00166   0.00238   0.00582   0.00715   0.00792

  Beta  occ. eigenvalues --  -38.44125 -38.43953 -38.43929 -38.43902 -38.43868
  Beta  occ. eigenvalues --  -38.43550 -38.43204  -2.20192  -2.19974  -2.19930
  Beta  occ. eigenvalues --   -2.19828  -2.19712  -2.19445  -2.19193  -1.14022
  Beta  occ. eigenvalues --   -1.13895  -1.13869  -1.13799  -1.13693  -1.13653
  Beta  occ. eigenvalues --   -1.13622  -1.13550  -1.13528  -1.13463  -1.13456
  Beta  occ. eigenvalues --   -1.13435  -1.13407  -1.13388  -1.13383  -1.13110
  Beta  occ. eigenvalues --   -1.13096  -1.13065  -1.12870  -1.12825  -1.12788
  Beta  occ. eigenvalues --   -0.18648  -0.13272  -0.12808
  Beta virt. eigenvalues --   -0.07169  -0.06140  -0.04798  -0.04316  -0.02820
  Beta virt. eigenvalues --   -0.02351  -0.02116  -0.01603  -0.00704  -0.00599
  Beta virt. eigenvalues --   -0.00076   0.00018   0.00477   0.00680   0.00797

 Mulliken charges and spin densities:
               1          2
     1  Na   0.395461   0.341512
     2  Na   1.075949   0.032449
     3  Na   0.557018   0.058856
     4  Na  -0.432677   0.453574
     5  Na  -1.003785  -0.130837
     6  Na  -0.655013   0.024458
     7  Na   0.063046   0.219987
 Sum of Mulliken charges =  -0.00000   1.00000

 Dipole moment (field-independent basis, Debye):
    X=             -0.9131    Y=             -0.2979    Z=              0.6555  Tot=              1.1628
 Quadrupole moment (field-independent basis, Debye-Ang):
   XX=            -70.8000   YY=            -63.1755   ZZ=            -67.5621
   XY=              0.7593   XZ=             -0.6329   YZ=             -1.3535

 Normal termination of Gaussian 16 at Mon Nov 13 16:14:29 2023.
