 Gaussian 16, Revision B.01,
 Gaussian 16:  ES64L-G16RevB.01 20-Dec-2017

 -------------------------
 #P B3LYP/6-311+g(d) force
 -------------------------

 ------------------------------
 Gaussian input prepared by ASE
 ------------------------------
 Symbolic Z-matrix:
 Charge =  0 Multiplicity = 2

                         Standard orientation:
 ---------------------------------------------------------------------
 Center     Atomic      Atomic             Coordinates (Angstroms)
 Number     Number       Type             X           Y           Z
 ---------------------------------------------------------------------
      1         11           0        0.289998   -1.631964   -1.418595
      2         11           0       -0.431582   -1.529453    1.494816
      3         11           0       -3.080502   -0.437496    0.612491
      4         11           0       -1.491415    0.777136   -1.619979
      5         11           0        0.120124    2.729429   -0.011950
      6         11           0        1.586728    0.690900    1.624910
      7         11           0        3.006649   -0.598552   -0.681692
 ---------------------------------------------------------------------

 SCF Done:  E(UB3LYP) =  -1136.10900581     A.U. after   20 cycles

 The electronic state is 2-A.
 Alpha  occ. eigenvalues --  -38.44814 -38.44792 -38.44005 -38.43950 -38.43937
 Alpha  occ. eigenvalues --  -38.43882 -38.42798  -2.20701  -2.20679  -2.20006
 Alpha  occ. eigenvalues --   -2.19950  -2.19930  -2.19876  -2.18689  -1.14421
 Alpha  occ. eigenvalues --   -1.14399  -1.14395  -1.14373  -1.14302  -1.14280
 Alpha  occ. eigenvalues --   -1.13788  -1.13765  -1.13727  -1.13618  -1.13579
 Alpha  occ. eigenvalues --   -1.13567  -1.13558  -1.13527  -1.13516  -1.13502
 Alpha  occ. eigenvalues --   -1.13494  -1.13447  -1.12374  -1.12366  -1.12295
 Alpha  occ. eigenvalues --   -0.19517  -0.13618  -0.12325  -0.11952
 Alpha virt. eigenvalues --   -0.06096  -0.04592  -0.03999  -0.03847  -0.03289
 Alpha virt. eigenvalues --   -0.03199  -0.01765  -0.00331  -0.00258   0.00285
 Alpha virt. eigenvalues --    0.00407   0.00425   0.00698   0.00869   0.00947

  Beta  occ. eigenvalues --  -38.44801 -38.44777 -38.43946 -38.43894 -38.43891
  Beta  occ. eigenvalues --  -38.43837 -38.42797  -2.20680  -2.20655  -2.19901
  Beta  occ. eigenvalues --   -2.19852  -2.19846  -2.19794  -2.18689  -1.14389
  Beta  occ. eigenvalues --   -1.14377  -1.14363  -1.14354  -1.14290  -1.14266
  Beta  occ. eigenvalues --   -1.13719  -1.13682  -1.13645  -1.13549  -1.13522
  Beta  occ. eigenvalues --   -1.13500  -1.13497  -1.13472  -1.13449  -1.13436
  Beta  occ. eigenvalues --   -1.13419  -1.13385  -1.12367  -1.12354  -1.12297
  Beta  occ. eigenvalues --   -0.18756  -0.13410  -0.11747
  Beta virt. eigenvalues --   -0.08215  -0.05940  -0.04005  -0.03808  -0.03547
  Beta virt. eigenvalues --   -0.02626  -0.02207  -0.01689  -0.00246  -0.00083
  Beta virt. eigenvalues --    0.00347   0.00470   0.00605   0.00714   0.00877

 Mulliken charges and spin densities:
               1          2
     1  Na  -0.045905   0.443715
     2  Na   0.007526   0.438159
     3  Na   0.184299  -0.099293
     4  Na  -0.067826   0.104532
     5  Na  -0.145689   0.107342
     6  Na  -0.094002   0.089880
     7  Na   0.161598  -0.084335
 Sum of Mulliken charges =  -0.00000   1.00000

 Dipole moment (field-independent basis, Debye):
    X=             -0.0393    Y=             -0.3421    Z=              0.0070  Tot=              0.3444
 Quadrupole moment (field-independent basis, Debye-Ang):
   XX=            -55.9134   YY=            -75.3021   ZZ=            -66.3672
   XY=             -0.1145   XZ=             -2.2844   YZ=              0.2171

 Normal termination of Gaussian 16 at Mon Nov 13 16:00:24 2023.
