 Gaussian 16, Revision B.01,
 Gaussian 16:  ES64L-G16RevB.01 20-Dec-2017

 -------------------------
 #P B3LYP/6-311+g(d) force
 -------------------------

 ------------------------------
 Gaussian input prepared by ASE
 ------------------------------
 Symbolic Z-matrix:
 Charge =  0 Multiplicity = 2

                         Standard orientation:
 ---------------------------------------------------------------------
 Center     Atomic      Atomic             Coordinates (Angstroms)
 Number     Number       Type             X           Y           Z
 ---------------------------------------------------------------------
      1         11           0       -2.780268    1.506077    0.147238
      2         11           0        1.221766    2.536762   -0.268136
      3         11           0        4.752319   -0.193009    0.457941
      4         11           0        2.292111   -1.610693   -0.513271
      5         11           0       -0.230992   -0.076741    0.054146
      6         11           0       -2.603939   -1.129219    1.557669
      7         11           0       -2.650997   -1.033177   -1.435586
 ---------------------------------------------------------------------

 SCF Done:  E(UB3LYP) =  -1136.08853085     A.U. after   31 cycles

 The electronic state is 2-A.
 Alpha  occ. eigenvalues --  -38.45532 -38.45165 -38.44245 -38.44236 -38.43836
 Alpha  occ. eigenvalues --  -38.43306 -38.43137  -2.21515  -2.21139  -2.20237
 Alpha  occ. eigenvalues --   -2.20079  -2.19712  -2.19345  -2.19119  -1.15264
 Alpha  occ. eigenvalues --   -1.15160  -1.15148  -1.14866  -1.14778  -1.14743
 Alpha  occ. eigenvalues --   -1.13964  -1.13920  -1.13793  -1.13788  -1.13710
 Alpha  occ. eigenvalues --   -1.13693  -1.13461  -1.13353  -1.13327  -1.13064
 Alpha  occ. eigenvalues --   -1.13014  -1.12970  -1.12781  -1.12752  -1.12713
 Alpha  occ. eigenvalues --   -0.19082  -0.14686  -0.11120  -0.10568
 Alpha virt. eigenvalues --   -0.07513  -0.05490  -0.04376  -0.03037  -0.02976
 Alpha virt. eigenvalues --   -0.01946  -0.01641  -0.01512  -0.00710  -0.00605
 Alpha virt. eigenvalues --   -0.00141   0.00122   0.00211   0.00547   0.00744

  Beta  occ. eigenvalues --  -38.45493 -38.45153 -38.44207 -38.44169 -38.43831
  Beta  occ. eigenvalues --  -38.43300 -38.43089  -2.21446  -2.21125  -2.20187
  Beta  occ. eigenvalues --   -2.19937  -2.19710  -2.19265  -2.19110  -1.15228
  Beta  occ. eigenvalues --   -1.15133  -1.15050  -1.14859  -1.14751  -1.14705
  Beta  occ. eigenvalues --   -1.13938  -1.13875  -1.13738  -1.13701  -1.13613
  Beta  occ. eigenvalues --   -1.13595  -1.13434  -1.13355  -1.13296  -1.13027
  Beta  occ. eigenvalues --   -1.12966  -1.12889  -1.12772  -1.12731  -1.12703
  Beta  occ. eigenvalues --   -0.18500  -0.14072  -0.10894
  Beta virt. eigenvalues --   -0.07353  -0.06806  -0.05377  -0.03793  -0.02840
  Beta virt. eigenvalues --   -0.02782  -0.01613  -0.01310  -0.01086  -0.00573
  Beta virt. eigenvalues --   -0.00287   0.00067   0.00185   0.00408   0.00600

 Mulliken charges and spin densities:
               1          2
     1  Na   1.284205   0.273253
     2  Na   0.494918  -0.080823
     3  Na  -0.003874   0.389301
     4  Na   0.520381   0.260580
     5  Na  -3.555605  -0.296677
     6  Na   0.574279   0.336143
     7  Na   0.685695   0.118224
 Sum of Mulliken charges =  -0.00000   1.00000

 Dipole moment (field-independent basis, Debye):
    X=             -1.3225    Y=              0.0801    Z=             -0.2470  Tot=              1.3478
 Quadrupole moment (field-independent basis, Debye-Ang):
   XX=            -60.8384   YY=            -73.1554   ZZ=            -64.6996
   XY=              5.3957   XZ=              4.2794   YZ=             -1.4966

 Normal termination of Gaussian 16 at Mon Nov 13 17:29:09 2023.
