 Gaussian 16, Revision B.01,
 Gaussian 16:  ES64L-G16RevB.01 20-Dec-2017

 -------------------------
 #P B3LYP/6-311+g(d) force
 -------------------------

 ------------------------------
 Gaussian input prepared by ASE
 ------------------------------
 Symbolic Z-matrix:
 Charge =  0 Multiplicity = 2

                         Standard orientation:
 ---------------------------------------------------------------------
 Center     Atomic      Atomic             Coordinates (Angstroms)
 Number     Number       Type             X           Y           Z
 ---------------------------------------------------------------------
      1         11           0        0.869553   -1.489757    0.126900
      2         11           0       -0.811365   -0.021200    1.838600
      3         11           0        3.503582   -0.224775   -0.039122
      4         11           0        1.207328    1.588937    0.073235
      5         11           0       -1.889329    1.693627   -0.106315
      6         11           0       -0.597550   -0.108639   -1.835201
      7         11           0       -2.282219   -1.438194   -0.058097
 ---------------------------------------------------------------------

 SCF Done:  E(UB3LYP) =  -1136.08321623     A.U. after   23 cycles

 The electronic state is 2-A.
 Alpha  occ. eigenvalues --  -38.45297 -38.44575 -38.44533 -38.43734 -38.43278
 Alpha  occ. eigenvalues --  -38.43137 -38.42785  -2.21193  -2.20773  -2.20732
 Alpha  occ. eigenvalues --   -2.19838  -2.19389  -2.19324  -2.18891  -1.14910
 Alpha  occ. eigenvalues --   -1.14870  -1.14807  -1.14577  -1.14477  -1.14467
 Alpha  occ. eigenvalues --   -1.14447  -1.14390  -1.14344  -1.13501  -1.13485
 Alpha  occ. eigenvalues --   -1.13413  -1.13075  -1.13055  -1.13046  -1.12996
 Alpha  occ. eigenvalues --   -1.12972  -1.12887  -1.12600  -1.12541  -1.12490
 Alpha  occ. eigenvalues --   -0.21210  -0.14502  -0.12122  -0.11834
 Alpha virt. eigenvalues --   -0.06633  -0.04234  -0.03905  -0.03489  -0.02621
 Alpha virt. eigenvalues --   -0.02550  -0.01981  -0.00577  -0.00192   0.00181
 Alpha virt. eigenvalues --    0.00479   0.00620   0.00739   0.00933   0.01039

  Beta  occ. eigenvalues --  -38.45307 -38.44477 -38.44434 -38.43716 -38.43261
  Beta  occ. eigenvalues --  -38.43116 -38.42772  -2.21212  -2.20595  -2.20554
  Beta  occ. eigenvalues --   -2.19814  -2.19364  -2.19294  -2.18874  -1.14922
  Beta  occ. eigenvalues --   -1.14887  -1.14811  -1.14478  -1.14358  -1.14344
  Beta  occ. eigenvalues --   -1.14314  -1.14260  -1.14213  -1.13487  -1.13408
  Beta  occ. eigenvalues --   -1.13398  -1.13066  -1.13035  -1.12976  -1.12961
  Beta  occ. eigenvalues --   -1.12904  -1.12876  -1.12594  -1.12487  -1.12478
  Beta  occ. eigenvalues --   -0.20380  -0.14266  -0.11478
  Beta virt. eigenvalues --   -0.07897  -0.06476  -0.04264  -0.03215  -0.03055
  Beta virt. eigenvalues --   -0.01980  -0.01737  -0.01670  -0.00555   0.00017
  Beta virt. eigenvalues --    0.00228   0.00494   0.00595   0.00967   0.01019

 Mulliken charges and spin densities:
               1          2
     1  Na   0.021110   0.202016
     2  Na  -0.105176   0.428073
     3  Na  -0.275548  -0.183715
     4  Na  -0.235975   0.054836
     5  Na   0.245029  -0.022121
     6  Na  -0.101406   0.519407
     7  Na   0.451966   0.001504
 Sum of Mulliken charges =  -0.00000   1.00000

 Dipole moment (field-independent basis, Debye):
    X=              0.8115    Y=              0.0730    Z=             -0.0390  Tot=              0.8157
 Quadrupole moment (field-independent basis, Debye-Ang):
   XX=            -49.7606   YY=            -76.4257   ZZ=            -68.5500
   XY=             -0.0025   XZ=             -0.1822   YZ=             -0.0365

 Normal termination of Gaussian 16 at Mon Nov 13 18:14:37 2023.
