 Gaussian 16, Revision B.01,
 Gaussian 16:  ES64L-G16RevB.01 20-Dec-2017

 -------------------------
 #P B3LYP/6-311+g(d) force
 -------------------------

 ------------------------------
 Gaussian input prepared by ASE
 ------------------------------
 Symbolic Z-matrix:
 Charge =  0 Multiplicity = 2

                         Standard orientation:
 ---------------------------------------------------------------------
 Center     Atomic      Atomic             Coordinates (Angstroms)
 Number     Number       Type             X           Y           Z
 ---------------------------------------------------------------------
      1         11           0        2.047641    1.521778    0.524252
      2         11           0       -1.023246   -1.520349   -0.370234
      3         11           0       -3.476523    0.001129    0.105678
      4         11           0       -1.014374    1.565863   -0.113726
      5         11           0        0.939580    0.393364   -1.778923
      6         11           0        0.432535   -0.396957    1.774455
      7         11           0        2.094385   -1.564827   -0.141502
 ---------------------------------------------------------------------

 SCF Done:  E(UB3LYP) =  -1136.08365645     A.U. after   23 cycles

 The electronic state is 2-A.
 Alpha  occ. eigenvalues --  -38.45248 -38.44397 -38.44313 -38.43642 -38.43551
 Alpha  occ. eigenvalues --  -38.43030 -38.42911  -2.21148  -2.20599  -2.20517
 Alpha  occ. eigenvalues --   -2.19752  -2.19658  -2.19184  -2.19061  -1.14866
 Alpha  occ. eigenvalues --   -1.14825  -1.14760  -1.14406  -1.14317  -1.14269
 Alpha  occ. eigenvalues --   -1.14246  -1.14229  -1.14149  -1.13417  -1.13389
 Alpha  occ. eigenvalues --   -1.13349  -1.13311  -1.13298  -1.13214  -1.12940
 Alpha  occ. eigenvalues --   -1.12839  -1.12800  -1.12741  -1.12711  -1.12620
 Alpha  occ. eigenvalues --   -0.21239  -0.14471  -0.12208  -0.11810
 Alpha virt. eigenvalues --   -0.06559  -0.04216  -0.03885  -0.03478  -0.02635
 Alpha virt. eigenvalues --   -0.02573  -0.01935  -0.00571  -0.00190   0.00190
 Alpha virt. eigenvalues --    0.00490   0.00629   0.00786   0.00948   0.01034

  Beta  occ. eigenvalues --  -38.45255 -38.44308 -38.44223 -38.43617 -38.43533
  Beta  occ. eigenvalues --  -38.43010 -38.42893  -2.21163  -2.20438  -2.20355
  Beta  occ. eigenvalues --   -2.19713  -2.19633  -2.19154  -2.19035  -1.14876
  Beta  occ. eigenvalues --   -1.14838  -1.14761  -1.14319  -1.14192  -1.14172
  Beta  occ. eigenvalues --   -1.14129  -1.14111  -1.14026  -1.13387  -1.13343
  Beta  occ. eigenvalues --   -1.13300  -1.13288  -1.13225  -1.13197  -1.12925
  Beta  occ. eigenvalues --   -1.12793  -1.12756  -1.12727  -1.12642  -1.12607
  Beta  occ. eigenvalues --   -0.20398  -0.14237  -0.11550
  Beta virt. eigenvalues --   -0.07855  -0.06410  -0.04234  -0.03262  -0.03068
  Beta virt. eigenvalues --   -0.01935  -0.01853  -0.01535  -0.00513   0.00011
  Beta virt. eigenvalues --    0.00237   0.00514   0.00611   0.00970   0.01028

 Mulliken charges and spin densities:
               1          2
     1  Na   0.115380  -0.017043
     2  Na  -0.094456   0.167375
     3  Na  -0.126005  -0.167815
     4  Na  -0.022417   0.160493
     5  Na  -0.164551   0.327428
     6  Na  -0.218434   0.498194
     7  Na   0.510483   0.031367
 Sum of Mulliken charges =  -0.00000   1.00000

 Dipole moment (field-independent basis, Debye):
    X=             -0.7881    Y=             -0.0075    Z=              0.0911  Tot=              0.7934
 Quadrupole moment (field-independent basis, Debye-Ang):
   XX=            -50.1251   YY=            -76.1434   ZZ=            -68.4900
   XY=             -0.0292   XZ=             -0.4503   YZ=              1.6293

 Normal termination of Gaussian 16 at Mon Nov 13 18:20:50 2023.
