 Gaussian 16, Revision B.01,
 Gaussian 16:  ES64L-G16RevB.01 20-Dec-2017

 -------------------------
 #P B3LYP/6-311+g(d) force
 -------------------------

 ------------------------------
 Gaussian input prepared by ASE
 ------------------------------
 Symbolic Z-matrix:
 Charge =  0 Multiplicity = 2

                         Standard orientation:
 ---------------------------------------------------------------------
 Center     Atomic      Atomic             Coordinates (Angstroms)
 Number     Number       Type             X           Y           Z
 ---------------------------------------------------------------------
      1         11           0        0.954339   -0.374688    1.391160
      2         11           0       -1.799977   -0.006762    1.373122
      3         11           0        3.360421   -0.169490   -0.217919
      4         11           0        0.700726   -0.095399   -1.367981
      5         11           0       -1.064300   -2.201292   -0.149447
      6         11           0       -2.019338    0.522132   -1.345764
      7         11           0       -0.131869    2.325499    0.316829
 ---------------------------------------------------------------------

 SCF Done:  E(UB3LYP) =  -1136.08522219     A.U. after   25 cycles

 The electronic state is 2-A.
 Alpha  occ. eigenvalues --  -38.44623 -38.44330 -38.44255 -38.43860 -38.43859
 Alpha  occ. eigenvalues --  -38.42725 -38.42440  -2.20557  -2.20538  -2.20387
 Alpha  occ. eigenvalues --   -2.20152  -2.20082  -2.18804  -2.18478  -1.14461
 Alpha  occ. eigenvalues --   -1.14441  -1.14366  -1.14270  -1.14197  -1.14165
 Alpha  occ. eigenvalues --   -1.14117  -1.14038  -1.13925  -1.13896  -1.13718
 Alpha  occ. eigenvalues --   -1.13694  -1.13673  -1.13618  -1.13580  -1.12517
 Alpha  occ. eigenvalues --   -1.12450  -1.12389  -1.12206  -1.12132  -1.12071
 Alpha  occ. eigenvalues --   -0.21155  -0.13894  -0.12511  -0.12087
 Alpha virt. eigenvalues --   -0.05957  -0.03960  -0.03634  -0.03480  -0.03013
 Alpha virt. eigenvalues --   -0.02795  -0.01578  -0.00403  -0.00387   0.00292
 Alpha virt. eigenvalues --    0.00603   0.00767   0.00906   0.01014   0.01066

  Beta  occ. eigenvalues --  -38.44620 -38.44271 -38.44202 -38.43797 -38.43796
  Beta  occ. eigenvalues --  -38.42713 -38.42427  -2.20533  -2.20455  -2.20294
  Beta  occ. eigenvalues --   -2.20041  -2.19974  -2.18789  -2.18460  -1.14403
  Beta  occ. eigenvalues --   -1.14368  -1.14301  -1.14230  -1.14135  -1.14116
  Beta  occ. eigenvalues --   -1.14090  -1.13973  -1.13861  -1.13824  -1.13642
  Beta  occ. eigenvalues --   -1.13607  -1.13595  -1.13543  -1.13486  -1.12512
  Beta  occ. eigenvalues --   -1.12415  -1.12358  -1.12198  -1.12075  -1.12066
  Beta  occ. eigenvalues --   -0.20318  -0.13737  -0.11764
  Beta virt. eigenvalues --   -0.08057  -0.05873  -0.03621  -0.03387  -0.03269
  Beta virt. eigenvalues --   -0.02050  -0.01853  -0.01460  -0.00376  -0.00090
  Beta virt. eigenvalues --    0.00328   0.00661   0.00866   0.00950   0.01016

 Mulliken charges and spin densities:
               1          2
     1  Na  -0.041857   0.161494
     2  Na   1.029670   0.164434
     3  Na  -0.233506   0.058917
     4  Na   0.440142   0.400932
     5  Na  -0.877488   0.283698
     6  Na   0.712028  -0.048130
     7  Na  -1.028989  -0.021346
 Sum of Mulliken charges =  -0.00000   1.00000

 Dipole moment (field-independent basis, Debye):
    X=              0.5066    Y=              0.1579    Z=             -0.1309  Tot=              0.5466
 Quadrupole moment (field-independent basis, Debye-Ang):
   XX=            -55.2769   YY=            -72.6420   ZZ=            -66.6782
   XY=              0.2167   XZ=              0.1911   YZ=              0.6802

 Normal termination of Gaussian 16 at Mon Nov 13 19:10:12 2023.
