 Gaussian 16, Revision B.01,
 Gaussian 16:  ES64L-G16RevB.01 20-Dec-2017

 -------------------------
 #P B3LYP/6-311+g(d) force
 -------------------------

 ------------------------------
 Gaussian input prepared by ASE
 ------------------------------
 Symbolic Z-matrix:
 Charge =  0 Multiplicity = 2

                         Standard orientation:
 ---------------------------------------------------------------------
 Center     Atomic      Atomic             Coordinates (Angstroms)
 Number     Number       Type             X           Y           Z
 ---------------------------------------------------------------------
      1         11           0        1.211398    0.833202    1.499804
      2         11           0       -0.279107    2.497853   -0.504706
      3         11           0       -4.207930    0.078053    0.906662
      4         11           0       -2.419451   -1.324797   -1.053925
      5         11           0        0.423078   -0.354015   -1.130042
      6         11           0        3.308599    0.266177   -0.571275
      7         11           0        1.963414   -1.996474    0.853482
 ---------------------------------------------------------------------

 SCF Done:  E(UB3LYP) =  -1136.09273300     A.U. after   26 cycles

 The electronic state is 2-A.
 Alpha  occ. eigenvalues --  -38.46193 -38.44753 -38.44099 -38.43716 -38.43666
 Alpha  occ. eigenvalues --  -38.43154 -38.42573  -2.22155  -2.20564  -2.20194
 Alpha  occ. eigenvalues --   -2.19656  -2.19598  -2.19361  -2.18487  -1.15887
 Alpha  occ. eigenvalues --   -1.15840  -1.15744  -1.14255  -1.14201  -1.14183
 Alpha  occ. eigenvalues --   -1.13948  -1.13836  -1.13827  -1.13398  -1.13361
 Alpha  occ. eigenvalues --   -1.13298  -1.13266  -1.13244  -1.13220  -1.13016
 Alpha  occ. eigenvalues --   -1.12993  -1.12943  -1.12191  -1.12149  -1.12078
 Alpha  occ. eigenvalues --   -0.19414  -0.14232  -0.11584  -0.10726
 Alpha virt. eigenvalues --   -0.07495  -0.04898  -0.04207  -0.03121  -0.02738
 Alpha virt. eigenvalues --   -0.02289  -0.01990  -0.00911  -0.00667  -0.00342
 Alpha virt. eigenvalues --   -0.00077   0.00148   0.00267   0.00663   0.00876

  Beta  occ. eigenvalues --  -38.46190 -38.44702 -38.44052 -38.43702 -38.43653
  Beta  occ. eigenvalues --  -38.43078 -38.42568  -2.22155  -2.20467  -2.20108
  Beta  occ. eigenvalues --   -2.19637  -2.19580  -2.19225  -2.18481  -1.15892
  Beta  occ. eigenvalues --   -1.15799  -1.15750  -1.14194  -1.14134  -1.14116
  Beta  occ. eigenvalues --   -1.13893  -1.13777  -1.13756  -1.13377  -1.13312
  Beta  occ. eigenvalues --   -1.13283  -1.13222  -1.13219  -1.13212  -1.12920
  Beta  occ. eigenvalues --   -1.12908  -1.12847  -1.12187  -1.12121  -1.12079
  Beta  occ. eigenvalues --   -0.18828  -0.13738  -0.11357
  Beta virt. eigenvalues --   -0.07173  -0.07079  -0.04479  -0.03979  -0.02932
  Beta virt. eigenvalues --   -0.02573  -0.01712  -0.01377  -0.00676  -0.00379
  Beta virt. eigenvalues --   -0.00220   0.00020   0.00245   0.00414   0.00738

 Mulliken charges and spin densities:
               1          2
     1  Na  -0.566810   0.366195
     2  Na  -0.145307  -0.008923
     3  Na  -0.264959   0.281300
     4  Na  -0.220167   0.047509
     5  Na  -0.141110   0.165267
     6  Na   1.631811   0.106599
     7  Na  -0.293458   0.042052
 Sum of Mulliken charges =  -0.00000   1.00000

 Dipole moment (field-independent basis, Debye):
    X=              1.0686    Y=              0.5087    Z=              0.1204  Tot=              1.1896
 Quadrupole moment (field-independent basis, Debye-Ang):
   XX=            -54.4049   YY=            -72.9048   ZZ=            -69.0341
   XY=             -0.7669   XZ=             -5.3433   YZ=             -1.7030

 Normal termination of Gaussian 16 at Mon Nov 13 17:31:00 2023.
