 Gaussian 16, Revision B.01,
 Gaussian 16:  ES64L-G16RevB.01 20-Dec-2017

 -------------------------
 #P B3LYP/6-311+g(d) force
 -------------------------

 ------------------------------
 Gaussian input prepared by ASE
 ------------------------------
 Symbolic Z-matrix:
 Charge =  0 Multiplicity = 2

                         Standard orientation:
 ---------------------------------------------------------------------
 Center     Atomic      Atomic             Coordinates (Angstroms)
 Number     Number       Type             X           Y           Z
 ---------------------------------------------------------------------
      1         11           0       -0.601902   -0.001915    2.036255
      2         11           0        1.497698   -1.531572    0.542365
      3         11           0        2.885862   -0.026218   -1.647246
      4         11           0        1.583342    1.463459    0.602233
      5         11           0       -1.286549    2.137730    0.045347
      6         11           0       -2.670252    0.058109   -1.623049
      7         11           0       -1.408198   -2.099593    0.044096
 ---------------------------------------------------------------------

 SCF Done:  E(UB3LYP) =  -1136.10452723     A.U. after   21 cycles

 The electronic state is 2-A.
 Alpha  occ. eigenvalues --  -38.44829 -38.44787 -38.44479 -38.43370 -38.43326
 Alpha  occ. eigenvalues --  -38.43076 -38.43043  -2.20731  -2.20691  -2.20587
 Alpha  occ. eigenvalues --   -2.19439  -2.19391  -2.19051  -2.19018  -1.14403
 Alpha  occ. eigenvalues --   -1.14394  -1.14392  -1.14344  -1.14336  -1.14323
 Alpha  occ. eigenvalues --   -1.14298  -1.14220  -1.14213  -1.13234  -1.13130
 Alpha  occ. eigenvalues --   -1.13103  -1.13093  -1.13050  -1.12954  -1.12726
 Alpha  occ. eigenvalues --   -1.12700  -1.12697  -1.12667  -1.12665  -1.12637
 Alpha  occ. eigenvalues --   -0.19768  -0.14149  -0.12179  -0.12165
 Alpha virt. eigenvalues --   -0.05107  -0.05008  -0.04707  -0.03663  -0.03189
 Alpha virt. eigenvalues --   -0.03051  -0.01007  -0.00553  -0.00281   0.00369
 Alpha virt. eigenvalues --    0.00467   0.00618   0.00702   0.00794   0.00907

  Beta  occ. eigenvalues --  -38.44768 -38.44731 -38.44388 -38.43354 -38.43311
  Beta  occ. eigenvalues --  -38.43070 -38.43037  -2.20617  -2.20585  -2.20424
  Beta  occ. eigenvalues --   -2.19418  -2.19371  -2.19046  -2.19013  -1.14326
  Beta  occ. eigenvalues --   -1.14323  -1.14322  -1.14266  -1.14263  -1.14225
  Beta  occ. eigenvalues --   -1.14211  -1.14112  -1.14086  -1.13223  -1.13121
  Beta  occ. eigenvalues --   -1.13078  -1.13031  -1.12989  -1.12948  -1.12716
  Beta  occ. eigenvalues --   -1.12686  -1.12676  -1.12659  -1.12644  -1.12630
  Beta  occ. eigenvalues --   -0.19018  -0.13604  -0.11874
  Beta virt. eigenvalues --   -0.08456  -0.04737  -0.04503  -0.04351  -0.03710
  Beta virt. eigenvalues --   -0.02455  -0.02284  -0.00872  -0.00277  -0.00205
  Beta virt. eigenvalues --    0.00443   0.00666   0.00725   0.00737   0.00872

 Mulliken charges and spin densities:
               1          2
     1  Na   0.230603  -0.109560
     2  Na   0.020351   0.230674
     3  Na   0.342204   0.174803
     4  Na   0.120670   0.185693
     5  Na  -0.416632   0.227992
     6  Na   0.075542   0.097772
     7  Na  -0.372738   0.192626
 Sum of Mulliken charges =  -0.00000   1.00000

 Dipole moment (field-independent basis, Debye):
    X=              0.0557    Y=              0.0094    Z=             -0.9404  Tot=              0.9421
 Quadrupole moment (field-independent basis, Debye-Ang):
   XX=            -61.9333   YY=            -74.3651   ZZ=            -62.2517
   XY=              0.1243   XZ=             -1.0273   YZ=             -0.0289

 Normal termination of Gaussian 16 at Mon Nov 13 16:48:50 2023.
