 Gaussian 16, Revision B.01,
 Gaussian 16:  ES64L-G16RevB.01 20-Dec-2017

 -------------------------
 #P B3LYP/6-311+g(d) force
 -------------------------

 ------------------------------
 Gaussian input prepared by ASE
 ------------------------------
 Symbolic Z-matrix:
 Charge =  0 Multiplicity = 2

                         Standard orientation:
 ---------------------------------------------------------------------
 Center     Atomic      Atomic             Coordinates (Angstroms)
 Number     Number       Type             X           Y           Z
 ---------------------------------------------------------------------
      1         11           0        0.000898   -0.173656   -1.522795
      2         11           0       -0.012334    2.549454    0.350896
      3         11           0        2.465538    0.887923   -0.344068
      4         11           0        1.551511   -2.010186    0.100954
      5         11           0       -0.001887   -0.089464    1.659348
      6         11           0       -1.527950   -2.026667    0.100848
      7         11           0       -2.475777    0.862596   -0.345184
 ---------------------------------------------------------------------

 SCF Done:  E(UB3LYP) =  -1136.10683191     A.U. after   20 cycles

 The electronic state is 2-A.
 Alpha  occ. eigenvalues --  -38.43445 -38.43445 -38.43404 -38.43403 -38.43402
 Alpha  occ. eigenvalues --  -38.43346 -38.43339  -2.19641  -2.19619  -2.19480
 Alpha  occ. eigenvalues --   -2.19479  -2.19464  -2.19461  -2.19358  -1.13608
 Alpha  occ. eigenvalues --   -1.13521  -1.13443  -1.13385  -1.13322  -1.13281
 Alpha  occ. eigenvalues --   -1.13219  -1.13211  -1.13119  -1.13115  -1.13109
 Alpha  occ. eigenvalues --   -1.13104  -1.13079  -1.13045  -1.13039  -1.13014
 Alpha  occ. eigenvalues --   -1.13012  -1.12969  -1.12968  -1.12959  -1.12910
 Alpha  occ. eigenvalues --   -0.20966  -0.13476  -0.13346  -0.11477
 Alpha virt. eigenvalues --   -0.04883  -0.04631  -0.04573  -0.03218  -0.03169
 Alpha virt. eigenvalues --   -0.02380  -0.00994  -0.00881   0.00002   0.00350
 Alpha virt. eigenvalues --    0.00517   0.00576   0.01030   0.01067   0.01086

  Beta  occ. eigenvalues --  -38.43433 -38.43433 -38.43390 -38.43389 -38.43327
  Beta  occ. eigenvalues --  -38.43316 -38.43267  -2.19514  -2.19471  -2.19462
  Beta  occ. eigenvalues --   -2.19445  -2.19443  -2.19439  -2.19340  -1.13551
  Beta  occ. eigenvalues --   -1.13454  -1.13374  -1.13294  -1.13242  -1.13225
  Beta  occ. eigenvalues --   -1.13202  -1.13185  -1.13099  -1.13076  -1.13062
  Beta  occ. eigenvalues --   -1.13054  -1.13027  -1.13006  -1.12985  -1.12961
  Beta  occ. eigenvalues --   -1.12959  -1.12940  -1.12937  -1.12903  -1.12900
  Beta  occ. eigenvalues --   -0.20211  -0.13128  -0.13004
  Beta virt. eigenvalues --   -0.07359  -0.04917  -0.04618  -0.04553  -0.02326
  Beta virt. eigenvalues --   -0.02267  -0.01282  -0.00927  -0.00826   0.00128
  Beta virt. eigenvalues --    0.00375   0.00476   0.00528   0.01063   0.01070

 Mulliken charges and spin densities:
               1          2
     1  Na  -0.819571   0.414567
     2  Na   0.286156   0.040893
     3  Na   0.187897   0.005186
     4  Na   0.394441   0.006997
     5  Na  -0.632685   0.520649
     6  Na   0.396066   0.006802
     7  Na   0.187696   0.004906
 Sum of Mulliken charges =  -0.00000   1.00000

 Dipole moment (field-independent basis, Debye):
    X=             -0.0017    Y=              0.1320    Z=              0.0881  Tot=              0.1588
 Quadrupole moment (field-independent basis, Debye-Ang):
   XX=            -60.6558   YY=            -62.3383   ZZ=            -72.2194
   XY=             -0.0039   XZ=              0.0072   YZ=             -0.2302

 Normal termination of Gaussian 16 at Mon Nov 13 19:36:52 2023.
