 Gaussian 16, Revision B.01,
 Gaussian 16:  ES64L-G16RevB.01 20-Dec-2017

 -------------------------
 #P B3LYP/6-311+g(d) force
 -------------------------

 ------------------------------
 Gaussian input prepared by ASE
 ------------------------------
 Symbolic Z-matrix:
 Charge =  0 Multiplicity = 2

                         Standard orientation:
 ---------------------------------------------------------------------
 Center     Atomic      Atomic             Coordinates (Angstroms)
 Number     Number       Type             X           Y           Z
 ---------------------------------------------------------------------
      1         11           0       -0.150783    1.959297    0.213978
      2         11           0        1.451614   -1.921416   -0.186499
      3         11           0       -3.898753   -0.113010   -0.084363
      4         11           0       -1.117886   -0.726335    0.164031
      5         11           0        2.414809    0.763320   -0.136695
      6         11           0        0.772831   -0.128308    1.928891
      7         11           0        0.528167    0.166451   -1.899343
 ---------------------------------------------------------------------

 SCF Done:  E(UB3LYP) =  -1136.05171126     A.U. after   26 cycles

 The electronic state is 2-A.
 Alpha  occ. eigenvalues --  -38.45640 -38.45214 -38.45180 -38.44696 -38.43609
 Alpha  occ. eigenvalues --  -38.42866 -38.42812  -2.21467  -2.21438  -2.21434
 Alpha  occ. eigenvalues --   -2.20936  -2.19938  -2.19044  -2.18984  -1.15416
 Alpha  occ. eigenvalues --   -1.15290  -1.15224  -1.15181  -1.15157  -1.15078
 Alpha  occ. eigenvalues --   -1.15059  -1.15040  -1.14997  -1.14536  -1.14515
 Alpha  occ. eigenvalues --   -1.14492  -1.13660  -1.13596  -1.13527  -1.12747
 Alpha  occ. eigenvalues --   -1.12722  -1.12670  -1.12638  -1.12634  -1.12522
 Alpha  occ. eigenvalues --   -0.21694  -0.13785  -0.12721  -0.11913
 Alpha virt. eigenvalues --   -0.06974  -0.03878  -0.03623  -0.03329  -0.02808
 Alpha virt. eigenvalues --   -0.02566  -0.02152  -0.00392  -0.00347   0.00131
 Alpha virt. eigenvalues --    0.00431   0.00453   0.00618   0.00885   0.01147

  Beta  occ. eigenvalues --  -38.45658 -38.45109 -38.45069 -38.44667 -38.43580
  Beta  occ. eigenvalues --  -38.42847 -38.42793  -2.21472  -2.21279  -2.21235
  Beta  occ. eigenvalues --   -2.20891  -2.19895  -2.19018  -2.18959  -1.15316
  Beta  occ. eigenvalues --   -1.15213  -1.15145  -1.15098  -1.15084  -1.15078
  Beta  occ. eigenvalues --   -1.15035  -1.14900  -1.14847  -1.14488  -1.14488
  Beta  occ. eigenvalues --   -1.14388  -1.13649  -1.13511  -1.13477  -1.12741
  Beta  occ. eigenvalues --   -1.12715  -1.12623  -1.12585  -1.12553  -1.12508
  Beta  occ. eigenvalues --   -0.20763  -0.13605  -0.11518
  Beta virt. eigenvalues --   -0.08342  -0.06808  -0.03468  -0.03253  -0.02873
  Beta virt. eigenvalues --   -0.02130  -0.01929  -0.01822  -0.00350  -0.00121
  Beta virt. eigenvalues --    0.00174   0.00450   0.00608   0.00710   0.00928

 Mulliken charges and spin densities:
               1          2
     1  Na  -0.081939  -0.008959
     2  Na  -0.569674  -0.027462
     3  Na   0.614237  -0.137462
     4  Na   0.035625   0.246860
     5  Na   0.355278   0.087576
     6  Na  -0.206508   0.390236
     7  Na  -0.147019   0.449211
 Sum of Mulliken charges =  -0.00000   1.00000

 Dipole moment (field-independent basis, Debye):
    X=             -0.9522    Y=              0.2722    Z=             -0.0809  Tot=              0.9936
 Quadrupole moment (field-independent basis, Debye-Ang):
   XX=            -50.3021   YY=            -77.0398   ZZ=            -65.9890
   XY=             -1.1578   XZ=              0.6657   YZ=              0.9591

 Normal termination of Gaussian 16 at Mon Nov 13 19:56:20 2023.
