 Gaussian 16, Revision B.01,
 Gaussian 16:  ES64L-G16RevB.01 20-Dec-2017

 -------------------------
 #P B3LYP/6-311+g(d) force
 -------------------------

 ------------------------------
 Gaussian input prepared by ASE
 ------------------------------
 Symbolic Z-matrix:
 Charge =  0 Multiplicity = 2

                         Standard orientation:
 ---------------------------------------------------------------------
 Center     Atomic      Atomic             Coordinates (Angstroms)
 Number     Number       Type             X           Y           Z
 ---------------------------------------------------------------------
      1         11           0        1.692410    1.349681   -1.037985
      2         11           0       -0.727773   -1.164787    1.330363
      3         11           0       -1.021987    1.751220    0.409489
      4         11           0       -2.914215   -0.292895   -0.334682
      5         11           0        1.811123   -1.706763   -0.365640
      6         11           0       -0.316504   -0.446937   -1.579390
      7         11           0        1.476947    0.510480    1.577845
 ---------------------------------------------------------------------

 SCF Done:  E(UB3LYP) =  -1136.08077029     A.U. after   23 cycles

 The electronic state is 2-A.
 Alpha  occ. eigenvalues --  -38.44446 -38.44371 -38.44355 -38.43792 -38.43711
 Alpha  occ. eigenvalues --  -38.43231 -38.42724  -2.20655  -2.20636  -2.20398
 Alpha  occ. eigenvalues --   -2.19922  -2.19910  -2.19319  -2.18872  -1.14550
 Alpha  occ. eigenvalues --   -1.14459  -1.14436  -1.14367  -1.14309  -1.14218
 Alpha  occ. eigenvalues --   -1.14123  -1.14029  -1.13997  -1.13589  -1.13570
 Alpha  occ. eigenvalues --   -1.13540  -1.13500  -1.13479  -1.13470  -1.13018
 Alpha  occ. eigenvalues --   -1.12961  -1.12883  -1.12588  -1.12522  -1.12467
 Alpha  occ. eigenvalues --   -0.21569  -0.14204  -0.12962  -0.11969
 Alpha virt. eigenvalues --   -0.05530  -0.04271  -0.03922  -0.03828  -0.02998
 Alpha virt. eigenvalues --   -0.02851  -0.01182  -0.00347  -0.00331   0.00303
 Alpha virt. eigenvalues --    0.00747   0.00973   0.00994   0.01066   0.01085

  Beta  occ. eigenvalues --  -38.44378 -38.44365 -38.44274 -38.43758 -38.43654
  Beta  occ. eigenvalues --  -38.43217 -38.42706  -2.20515  -2.20512  -2.20388
  Beta  occ. eigenvalues --   -2.19864  -2.19812  -2.19299  -2.18846  -1.14452
  Beta  occ. eigenvalues --   -1.14377  -1.14332  -1.14295  -1.14205  -1.14132
  Beta  occ. eigenvalues --   -1.14095  -1.14019  -1.13959  -1.13527  -1.13520
  Beta  occ. eigenvalues --   -1.13478  -1.13431  -1.13417  -1.13394  -1.13000
  Beta  occ. eigenvalues --   -1.12921  -1.12860  -1.12575  -1.12470  -1.12437
  Beta  occ. eigenvalues --   -0.20722  -0.13942  -0.11718
  Beta virt. eigenvalues --   -0.08502  -0.05470  -0.03938  -0.03474  -0.03268
  Beta virt. eigenvalues --   -0.02216  -0.02030  -0.01132  -0.00328  -0.00082
  Beta virt. eigenvalues --    0.00336   0.00821   0.00999   0.01059   0.01111

 Mulliken charges and spin densities:
               1          2
     1  Na   0.157088  -0.013949
     2  Na  -0.493693   0.231528
     3  Na  -0.936909   0.109218
     4  Na   0.955592  -0.001747
     5  Na  -0.323439  -0.025266
     6  Na  -0.022933   0.426881
     7  Na   0.664294   0.273335
 Sum of Mulliken charges =  -0.00000   1.00000

 Dipole moment (field-independent basis, Debye):
    X=             -0.2327    Y=             -0.0204    Z=              0.0004  Tot=              0.2336
 Quadrupole moment (field-independent basis, Debye-Ang):
   XX=            -57.5476   YY=            -74.8440   ZZ=            -64.7544
   XY=             -0.0181   XZ=              0.1985   YZ=             -0.0202

 Normal termination of Gaussian 16 at Mon Nov 13 19:19:07 2023.
