 Gaussian 16, Revision B.01,
 Gaussian 16:  ES64L-G16RevB.01 20-Dec-2017

 -------------------------
 #P B3LYP/6-311+g(d) force
 -------------------------

 ------------------------------
 Gaussian input prepared by ASE
 ------------------------------
 Symbolic Z-matrix:
 Charge =  0 Multiplicity = 2

                         Standard orientation:
 ---------------------------------------------------------------------
 Center     Atomic      Atomic             Coordinates (Angstroms)
 Number     Number       Type             X           Y           Z
 ---------------------------------------------------------------------
      1         11           0        0.841051    2.371796   -0.140640
      2         11           0       -2.105340   -1.539033   -0.044112
      3         11           0       -2.111886    1.531517   -0.044109
      4         11           0       -0.379085   -0.000227    1.604948
      5         11           0        0.200408   -0.000683   -1.598660
      6         11           0        0.850165   -2.368064   -0.139695
      7         11           0        2.704687    0.004694    0.362268
 ---------------------------------------------------------------------

 SCF Done:  E(UB3LYP) =  -1136.10901707     A.U. after   20 cycles

 The electronic state is 2-A.
 Alpha  occ. eigenvalues --  -38.43579 -38.43488 -38.43487 -38.43349 -38.43315
 Alpha  occ. eigenvalues --  -38.43313 -38.43301  -2.19588  -2.19572  -2.19535
 Alpha  occ. eigenvalues --   -2.19532  -2.19524  -2.19363  -2.19355  -1.13587
 Alpha  occ. eigenvalues --   -1.13461  -1.13428  -1.13370  -1.13298  -1.13284
 Alpha  occ. eigenvalues --   -1.13262  -1.13232  -1.13171  -1.13156  -1.13155
 Alpha  occ. eigenvalues --   -1.13093  -1.13073  -1.13065  -1.13035  -1.12974
 Alpha  occ. eigenvalues --   -1.12968  -1.12963  -1.12937  -1.12914  -1.12903
 Alpha  occ. eigenvalues --   -0.20897  -0.13603  -0.13246  -0.11358
 Alpha virt. eigenvalues --   -0.05056  -0.04705  -0.04541  -0.03282  -0.03052
 Alpha virt. eigenvalues --   -0.02273  -0.01083  -0.00840   0.00021   0.00346
 Alpha virt. eigenvalues --    0.00459   0.00486   0.01006   0.01061   0.01083

  Beta  occ. eigenvalues --  -38.43568 -38.43477 -38.43475 -38.43303 -38.43301
  Beta  occ. eigenvalues --  -38.43269 -38.43217  -2.19556  -2.19539  -2.19517
  Beta  occ. eigenvalues --   -2.19414  -2.19394  -2.19347  -2.19330  -1.13540
  Beta  occ. eigenvalues --   -1.13407  -1.13385  -1.13311  -1.13273  -1.13262
  Beta  occ. eigenvalues --   -1.13218  -1.13178  -1.13131  -1.13115  -1.13085
  Beta  occ. eigenvalues --   -1.13075  -1.13005  -1.12992  -1.12968  -1.12933
  Beta  occ. eigenvalues --   -1.12927  -1.12919  -1.12909  -1.12899  -1.12834
  Beta  occ. eigenvalues --   -0.20128  -0.13279  -0.12898
  Beta virt. eigenvalues --   -0.07252  -0.05062  -0.04689  -0.04541  -0.02397
  Beta virt. eigenvalues --   -0.02154  -0.01204  -0.01013  -0.00788   0.00143
  Beta virt. eigenvalues --    0.00364   0.00417   0.00436   0.01043   0.01055

 Mulliken charges and spin densities:
               1          2
     1  Na   0.397064   0.010011
     2  Na   0.418712  -0.021633
     3  Na   0.417478  -0.021727
     4  Na  -0.885204   0.543810
     5  Na  -0.835861   0.465606
     6  Na   0.398871   0.010431
     7  Na   0.088940   0.013503
 Sum of Mulliken charges =  -0.00000   1.00000

 Dipole moment (field-independent basis, Debye):
    X=              0.1023    Y=              0.0016    Z=              0.0604  Tot=              0.1188
 Quadrupole moment (field-independent basis, Debye-Ang):
   XX=            -59.3533   YY=            -63.2584   ZZ=            -72.5715
   XY=              0.0017   XZ=              1.3782   YZ=             -0.0006

 Normal termination of Gaussian 16 at Mon Nov 13 16:36:06 2023.
