 Gaussian 16, Revision B.01,
 Gaussian 16:  ES64L-G16RevB.01 20-Dec-2017

 -------------------------
 #P B3LYP/6-311+g(d) force
 -------------------------

 ------------------------------
 Gaussian input prepared by ASE
 ------------------------------
 Symbolic Z-matrix:
 Charge =  0 Multiplicity = 2

                         Standard orientation:
 ---------------------------------------------------------------------
 Center     Atomic      Atomic             Coordinates (Angstroms)
 Number     Number       Type             X           Y           Z
 ---------------------------------------------------------------------
      1         11           0        0.981481   -2.686851   -0.254531
      2         11           0       -1.864441    3.253973   -1.037284
      3         11           0        3.440235   -1.029343   -0.700035
      4         11           0        2.625580    1.677432    0.307420
      5         11           0       -0.283357    1.773727    1.035866
      6         11           0       -1.198682   -1.086282    1.043399
      7         11           0       -3.700815   -1.902656   -0.394835
 ---------------------------------------------------------------------

 SCF Done:  E(UB3LYP) =  -1136.09704149     A.U. after   24 cycles

 The electronic state is 2-A.
 Alpha  occ. eigenvalues --  -38.45818 -38.44654 -38.44224 -38.44027 -38.44012
 Alpha  occ. eigenvalues --  -38.43920 -38.43741  -2.21609  -2.20595  -2.20107
 Alpha  occ. eigenvalues --   -2.19924  -2.19914  -2.19761  -2.19691  -1.15298
 Alpha  occ. eigenvalues --   -1.15254  -1.15239  -1.14306  -1.14274  -1.14227
 Alpha  occ. eigenvalues --   -1.13879  -1.13824  -1.13748  -1.13643  -1.13592
 Alpha  occ. eigenvalues --   -1.13548  -1.13536  -1.13522  -1.13507  -1.13494
 Alpha  occ. eigenvalues --   -1.13391  -1.13385  -1.13353  -1.13298  -1.13250
 Alpha  occ. eigenvalues --   -0.17696  -0.13755  -0.13393  -0.10017
 Alpha virt. eigenvalues --   -0.07691  -0.04984  -0.04348  -0.03906  -0.03181
 Alpha virt. eigenvalues --   -0.02258  -0.01355  -0.01235  -0.01122  -0.00637
 Alpha virt. eigenvalues --   -0.00211   0.00242   0.00330   0.00634   0.00643

  Beta  occ. eigenvalues --  -38.45796 -38.44656 -38.44219 -38.43975 -38.43956
  Beta  occ. eigenvalues --  -38.43832 -38.43743  -2.21568  -2.20598  -2.20105
  Beta  occ. eigenvalues --   -2.19830  -2.19810  -2.19703  -2.19595  -1.15270
  Beta  occ. eigenvalues --   -1.15224  -1.15213  -1.14312  -1.14272  -1.14229
  Beta  occ. eigenvalues --   -1.13825  -1.13817  -1.13751  -1.13585  -1.13527
  Beta  occ. eigenvalues --   -1.13485  -1.13469  -1.13460  -1.13444  -1.13431
  Beta  occ. eigenvalues --   -1.13367  -1.13301  -1.13267  -1.13263  -1.13180
  Beta  occ. eigenvalues --   -0.17426  -0.13374  -0.12596
  Beta virt. eigenvalues --   -0.07462  -0.06656  -0.04894  -0.04127  -0.03377
  Beta virt. eigenvalues --   -0.02892  -0.01995  -0.01100  -0.00933  -0.00867
  Beta virt. eigenvalues --   -0.00391   0.00045   0.00386   0.00420   0.00679

 Mulliken charges and spin densities:
               1          2
     1  Na   0.020369   0.116609
     2  Na  -0.190504   0.383515
     3  Na   0.197001   0.040109
     4  Na  -0.198315   0.282147
     5  Na   0.507489  -0.081908
     6  Na  -0.701413   0.230910
     7  Na   0.365374   0.028620
 Sum of Mulliken charges =  -0.00000   1.00000

 Dipole moment (field-independent basis, Debye):
    X=             -1.1730    Y=             -0.7979    Z=             -0.8649  Tot=              1.6615
 Quadrupole moment (field-independent basis, Debye-Ang):
   XX=            -56.5477   YY=            -74.7805   ZZ=            -68.9269
   XY=              6.2130   XZ=              2.3686   YZ=             -0.5323

 Normal termination of Gaussian 16 at Mon Nov 13 15:20:39 2023.
