 Gaussian 16, Revision B.01,
 Gaussian 16:  ES64L-G16RevB.01 20-Dec-2017

 -------------------------
 #P B3LYP/6-311+g(d) force
 -------------------------

 ------------------------------
 Gaussian input prepared by ASE
 ------------------------------
 Symbolic Z-matrix:
 Charge =  0 Multiplicity = 2

                         Standard orientation:
 ---------------------------------------------------------------------
 Center     Atomic      Atomic             Coordinates (Angstroms)
 Number     Number       Type             X           Y           Z
 ---------------------------------------------------------------------
      1         11           0        0.490064   -1.844178   -1.147955
      2         11           0        0.083785   -0.775591    1.625723
      3         11           0        4.446524    0.863232    0.229929
      4         11           0        1.519919    0.877766   -0.426520
      5         11           0       -2.088358   -2.360146    0.293221
      6         11           0       -1.434360    0.404924   -0.675011
      7         11           0       -3.017575    2.833994    0.100613
 ---------------------------------------------------------------------

 SCF Done:  E(UB3LYP) =  -1136.08970042     A.U. after   27 cycles

 The electronic state is 2-A.
 Alpha  occ. eigenvalues --  -38.45369 -38.45011 -38.44684 -38.43754 -38.43624
 Alpha  occ. eigenvalues --  -38.43567 -38.42710  -2.21162  -2.21066  -2.20669
 Alpha  occ. eigenvalues --   -2.19861  -2.19679  -2.19365  -2.18893  -1.14858
 Alpha  occ. eigenvalues --   -1.14834  -1.14804  -1.14792  -1.14738  -1.14680
 Alpha  occ. eigenvalues --   -1.14369  -1.14302  -1.14285  -1.13651  -1.13498
 Alpha  occ. eigenvalues --   -1.13467  -1.13400  -1.13304  -1.13254  -1.13083
 Alpha  occ. eigenvalues --   -1.13008  -1.13006  -1.12599  -1.12541  -1.12472
 Alpha  occ. eigenvalues --   -0.19928  -0.13689  -0.11998  -0.10791
 Alpha virt. eigenvalues --   -0.07485  -0.05360  -0.03628  -0.03138  -0.02608
 Alpha virt. eigenvalues --   -0.02099  -0.02013  -0.01356  -0.00805  -0.00189
 Alpha virt. eigenvalues --   -0.00107   0.00307   0.00479   0.00618   0.00755

  Beta  occ. eigenvalues --  -38.45358 -38.44955 -38.44658 -38.43690 -38.43595
  Beta  occ. eigenvalues --  -38.43575 -38.42674  -2.21141  -2.20966  -2.20627
  Beta  occ. eigenvalues --   -2.19750  -2.19634  -2.19379  -2.18837  -1.14845
  Beta  occ. eigenvalues --   -1.14787  -1.14776  -1.14764  -1.14656  -1.14605
  Beta  occ. eigenvalues --   -1.14342  -1.14270  -1.14224  -1.13574  -1.13430
  Beta  occ. eigenvalues --   -1.13380  -1.13348  -1.13244  -1.13189  -1.13091
  Beta  occ. eigenvalues --   -1.13017  -1.13014  -1.12570  -1.12495  -1.12383
  Beta  occ. eigenvalues --   -0.19079  -0.13398  -0.11926
  Beta virt. eigenvalues --   -0.07307  -0.06582  -0.05219  -0.03484  -0.02674
  Beta virt. eigenvalues --   -0.02432  -0.01692  -0.01563  -0.00918  -0.00512
  Beta virt. eigenvalues --   -0.00063  -0.00039   0.00418   0.00662   0.00733

 Mulliken charges and spin densities:
               1          2
     1  Na   1.681376   0.093609
     2  Na  -1.006165   0.473408
     3  Na   0.358847   0.115631
     4  Na  -1.037108   0.060562
     5  Na   0.487077   0.028695
     6  Na  -0.213285   0.602092
     7  Na  -0.270742  -0.373997
 Sum of Mulliken charges =  -0.00000   1.00000

 Dipole moment (field-independent basis, Debye):
    X=              1.0021    Y=             -0.9354    Z=              0.1164  Tot=              1.3757
 Quadrupole moment (field-independent basis, Debye-Ang):
   XX=            -50.6613   YY=            -65.4733   ZZ=            -73.7339
   XY=              3.4731   XZ=              0.0462   YZ=              2.5776

 Normal termination of Gaussian 16 at Mon Nov 13 19:08:10 2023.
