 Gaussian 16, Revision B.01,
 Gaussian 16:  ES64L-G16RevB.01 20-Dec-2017

 -------------------------
 #P B3LYP/6-311+g(d) force
 -------------------------

 ------------------------------
 Gaussian input prepared by ASE
 ------------------------------
 Symbolic Z-matrix:
 Charge =  0 Multiplicity = 2

                         Standard orientation:
 ---------------------------------------------------------------------
 Center     Atomic      Atomic             Coordinates (Angstroms)
 Number     Number       Type             X           Y           Z
 ---------------------------------------------------------------------
      1         11           0       -0.048374   -0.001479    1.412506
      2         11           0       -0.813494   -2.572109   -0.000486
      3         11           0       -2.732928    0.017505   -0.000277
      4         11           0       -0.780575    2.580776    0.000173
      5         11           0       -0.047290    0.001574   -1.412148
      6         11           0        2.221106    1.420358    0.001031
      7         11           0        2.201557   -1.446625   -0.000799
 ---------------------------------------------------------------------

 SCF Done:  E(UB3LYP) =  -1136.10839324     A.U. after   22 cycles

 The electronic state is 2-A.
 Alpha  occ. eigenvalues --  -38.43612 -38.43530 -38.43529 -38.43365 -38.43364
 Alpha  occ. eigenvalues --  -38.42874 -38.42873  -2.19613  -2.19600  -2.19562
 Alpha  occ. eigenvalues --   -2.19369  -2.19367  -2.19202  -2.19154  -1.13543
 Alpha  occ. eigenvalues --   -1.13428  -1.13338  -1.13317  -1.13286  -1.13254
 Alpha  occ. eigenvalues --   -1.13249  -1.13195  -1.13135  -1.13120  -1.13075
 Alpha  occ. eigenvalues --   -1.13051  -1.13022  -1.12995  -1.12969  -1.12950
 Alpha  occ. eigenvalues --   -1.12750  -1.12739  -1.12718  -1.12715  -1.12692
 Alpha  occ. eigenvalues --   -0.20775  -0.13667  -0.13348  -0.10729
 Alpha virt. eigenvalues --   -0.05134  -0.04818  -0.04760  -0.02976  -0.02746
 Alpha virt. eigenvalues --   -0.01680  -0.01220  -0.01101   0.00094   0.00230
 Alpha virt. eigenvalues --    0.00288   0.00378   0.00946   0.00990   0.01037

  Beta  occ. eigenvalues --  -38.43602 -38.43518 -38.43517 -38.43355 -38.43354
  Beta  occ. eigenvalues --  -38.42797 -38.42797  -2.19601  -2.19584  -2.19547
  Beta  occ. eigenvalues --   -2.19357  -2.19354  -2.19067  -2.19017  -1.13530
  Beta  occ. eigenvalues --   -1.13409  -1.13328  -1.13302  -1.13253  -1.13232
  Beta  occ. eigenvalues --   -1.13189  -1.13133  -1.13112  -1.13111  -1.13070
  Beta  occ. eigenvalues --   -1.12994  -1.12970  -1.12967  -1.12948  -1.12937
  Beta  occ. eigenvalues --   -1.12661  -1.12640  -1.12635  -1.12618  -1.12591
  Beta  occ. eigenvalues --   -0.20022  -0.13321  -0.13019
  Beta virt. eigenvalues --   -0.06654  -0.05144  -0.04824  -0.04740  -0.02078
  Beta virt. eigenvalues --   -0.01894  -0.01150  -0.01042  -0.00712   0.00189
  Beta virt. eigenvalues --    0.00219   0.00241   0.00429   0.00959   0.01000

 Mulliken charges and spin densities:
               1          2
     1  Na  -0.870067   0.494270
     2  Na   0.339898  -0.016652
     3  Na   0.281730  -0.037202
     4  Na   0.340203  -0.016449
     5  Na  -0.871180   0.493765
     6  Na   0.389047   0.040970
     7  Na   0.390368   0.041298
 Sum of Mulliken charges =  -0.00000   1.00000

 Dipole moment (field-independent basis, Debye):
    X=             -0.1987    Y=              0.0011    Z=              0.0003  Tot=              0.1987
 Quadrupole moment (field-independent basis, Debye-Ang):
   XX=            -57.6910   YY=            -59.0431   ZZ=            -75.6733
   XY=              0.0102   XZ=              0.0025   YZ=              0.0073

 Normal termination of Gaussian 16 at Mon Nov 13 20:35:14 2023.
