 Gaussian 16, Revision B.01,
 Gaussian 16:  ES64L-G16RevB.01 20-Dec-2017

 -------------------------
 #P B3LYP/6-311+g(d) force
 -------------------------

 ------------------------------
 Gaussian input prepared by ASE
 ------------------------------
 Symbolic Z-matrix:
 Charge =  0 Multiplicity = 2

                         Standard orientation:
 ---------------------------------------------------------------------
 Center     Atomic      Atomic             Coordinates (Angstroms)
 Number     Number       Type             X           Y           Z
 ---------------------------------------------------------------------
      1         11           0       -0.319191    0.821895    1.145212
      2         11           0        0.435811    2.563172   -1.175045
      3         11           0        4.614768   -0.868444    0.627631
      4         11           0        2.035303    0.102720   -0.555750
      5         11           0       -0.258853   -1.812799   -0.296173
      6         11           0       -3.186120   -1.507967   -0.886035
      7         11           0       -3.321718    0.701423    1.140159
 ---------------------------------------------------------------------

 SCF Done:  E(UB3LYP) =  -1136.09468621     A.U. after   24 cycles

 The electronic state is 2-A.
 Alpha  occ. eigenvalues --  -38.44865 -38.44687 -38.44213 -38.44138 -38.44134
 Alpha  occ. eigenvalues --  -38.44075 -38.43248  -2.20760  -2.20756  -2.20130
 Alpha  occ. eigenvalues --   -2.20110  -2.19975  -2.19958  -2.19335  -1.14515
 Alpha  occ. eigenvalues --   -1.14472  -1.14447  -1.14426  -1.14401  -1.14391
 Alpha  occ. eigenvalues --   -1.13815  -1.13797  -1.13752  -1.13750  -1.13721
 Alpha  occ. eigenvalues --   -1.13706  -1.13692  -1.13655  -1.13604  -1.13593
 Alpha  occ. eigenvalues --   -1.13591  -1.13578  -1.13047  -1.12982  -1.12921
 Alpha  occ. eigenvalues --   -0.18972  -0.14622  -0.12010  -0.10986
 Alpha virt. eigenvalues --   -0.07409  -0.04677  -0.04386  -0.03689  -0.03107
 Alpha virt. eigenvalues --   -0.02516  -0.01398  -0.01251  -0.01060  -0.00317
 Alpha virt. eigenvalues --   -0.00029   0.00146   0.00545   0.00692   0.00857

  Beta  occ. eigenvalues --  -38.44841 -38.44663 -38.44147 -38.44098 -38.44097
  Beta  occ. eigenvalues --  -38.44038 -38.43237  -2.20721  -2.20717  -2.20039
  Beta  occ. eigenvalues --   -2.20007  -2.20001  -2.19797  -2.19323  -1.14446
  Beta  occ. eigenvalues --   -1.14431  -1.14414  -1.14403  -1.14385  -1.14367
  Beta  occ. eigenvalues --   -1.13759  -1.13711  -1.13702  -1.13694  -1.13677
  Beta  occ. eigenvalues --   -1.13662  -1.13638  -1.13631  -1.13619  -1.13552
  Beta  occ. eigenvalues --   -1.13471  -1.13460  -1.13026  -1.12957  -1.12899
  Beta  occ. eigenvalues --   -0.18534  -0.13991  -0.11579
  Beta virt. eigenvalues --   -0.07409  -0.07274  -0.04305  -0.03854  -0.03515
  Beta virt. eigenvalues --   -0.02959  -0.02117  -0.01053  -0.00877  -0.00660
  Beta virt. eigenvalues --   -0.00103   0.00078   0.00314   0.00679   0.00774

 Mulliken charges and spin densities:
               1          2
     1  Na  -0.621616   0.103622
     2  Na   0.358089  -0.176298
     3  Na  -0.448855   0.331112
     4  Na   0.770456   0.333627
     5  Na  -0.626860   0.035313
     6  Na   0.622538   0.117827
     7  Na  -0.053753   0.254797
 Sum of Mulliken charges =  -0.00000   1.00000

 Dipole moment (field-independent basis, Debye):
    X=             -1.2218    Y=              0.4115    Z=             -0.8132  Tot=              1.5243
 Quadrupole moment (field-independent basis, Debye-Ang):
   XX=            -62.9344   YY=            -72.6354   ZZ=            -65.8553
   XY=              2.7716   XZ=              3.4823   YZ=             -3.2879

 Normal termination of Gaussian 16 at Mon Nov 13 15:13:26 2023.
