 Gaussian 16, Revision B.01,
 Gaussian 16:  ES64L-G16RevB.01 20-Dec-2017

 -------------------------
 #P B3LYP/6-311+g(d) force
 -------------------------

 ------------------------------
 Gaussian input prepared by ASE
 ------------------------------
 Symbolic Z-matrix:
 Charge =  0 Multiplicity = 2

                         Standard orientation:
 ---------------------------------------------------------------------
 Center     Atomic      Atomic             Coordinates (Angstroms)
 Number     Number       Type             X           Y           Z
 ---------------------------------------------------------------------
      1         11           0        0.841224   -1.926796    0.240237
      2         11           0       -1.205632    3.349299   -0.090411
      3         11           0       -3.844453   -1.104999    0.786911
      4         11           0       -1.628457   -1.073458   -1.233982
      5         11           0        0.506082    0.933772   -0.586518
      6         11           0        3.158329   -0.429753   -0.932440
      7         11           0        2.172907    0.251935    1.816202
 ---------------------------------------------------------------------

 SCF Done:  E(UB3LYP) =  -1136.09234519     A.U. after   26 cycles

 The electronic state is 2-A.
 Alpha  occ. eigenvalues --  -38.45696 -38.45104 -38.44386 -38.44351 -38.43550
 Alpha  occ. eigenvalues --  -38.43104 -38.42555  -2.21665  -2.20906  -2.20415
 Alpha  occ. eigenvalues --   -2.20386  -2.19521  -2.18904  -2.18735  -1.15390
 Alpha  occ. eigenvalues --   -1.15316  -1.15307  -1.14597  -1.14533  -1.14530
 Alpha  occ. eigenvalues --   -1.14232  -1.14145  -1.14041  -1.14016  -1.14003
 Alpha  occ. eigenvalues --   -1.13922  -1.13267  -1.13149  -1.13138  -1.12657
 Alpha  occ. eigenvalues --   -1.12554  -1.12541  -1.12406  -1.12398  -1.12314
 Alpha  occ. eigenvalues --   -0.19456  -0.14033  -0.11540  -0.10802
 Alpha virt. eigenvalues --   -0.07222  -0.05240  -0.04206  -0.03309  -0.02523
 Alpha virt. eigenvalues --   -0.02210  -0.01914  -0.00944  -0.00718   0.00001
 Alpha virt. eigenvalues --    0.00048   0.00135   0.00339   0.00596   0.00724

  Beta  occ. eigenvalues --  -38.45684 -38.45063 -38.44327 -38.44308 -38.43530
  Beta  occ. eigenvalues --  -38.43111 -38.42518  -2.21649  -2.20826  -2.20379
  Beta  occ. eigenvalues --   -2.20245  -2.19490  -2.18917  -2.18676  -1.15387
  Beta  occ. eigenvalues --   -1.15309  -1.15243  -1.14546  -1.14479  -1.14476
  Beta  occ. eigenvalues --   -1.14189  -1.14086  -1.13983  -1.13943  -1.13907
  Beta  occ. eigenvalues --   -1.13832  -1.13229  -1.13124  -1.13097  -1.12657
  Beta  occ. eigenvalues --   -1.12560  -1.12550  -1.12375  -1.12350  -1.12237
  Beta  occ. eigenvalues --   -0.18676  -0.13670  -0.11415
  Beta virt. eigenvalues --   -0.07047  -0.06730  -0.05142  -0.03626  -0.03231
  Beta virt. eigenvalues --   -0.02391  -0.01556  -0.01434  -0.00812  -0.00284
  Beta virt. eigenvalues --    0.00085   0.00144   0.00198   0.00521   0.00632

 Mulliken charges and spin densities:
               1          2
     1  Na   0.029414   0.410982
     2  Na   0.879993  -0.117880
     3  Na  -0.134979   0.209634
     4  Na   0.760124  -0.163172
     5  Na  -2.410288   0.519104
     6  Na   1.153350  -0.125161
     7  Na  -0.277613   0.266493
 Sum of Mulliken charges =  -0.00000   1.00000

 Dipole moment (field-independent basis, Debye):
    X=              0.5663    Y=             -0.5607    Z=              0.2555  Tot=              0.8369
 Quadrupole moment (field-independent basis, Debye-Ang):
   XX=            -50.5255   YY=            -73.4744   ZZ=            -69.0563
   XY=             -2.2816   XZ=             -6.1267   YZ=              0.6686

 Normal termination of Gaussian 16 at Mon Nov 13 17:32:11 2023.
