 Gaussian 16, Revision B.01,
 Gaussian 16:  ES64L-G16RevB.01 20-Dec-2017

 -------------------------
 #P B3LYP/6-311+g(d) force
 -------------------------

 ------------------------------
 Gaussian input prepared by ASE
 ------------------------------
 Symbolic Z-matrix:
 Charge =  0 Multiplicity = 2

                         Standard orientation:
 ---------------------------------------------------------------------
 Center     Atomic      Atomic             Coordinates (Angstroms)
 Number     Number       Type             X           Y           Z
 ---------------------------------------------------------------------
      1         11           0        0.528997    0.028351   -1.687599
      2         11           0       -1.479609   -2.466004    0.870352
      3         11           0       -2.382031   -0.394658   -1.106180
      4         11           0       -1.125581    2.276020   -0.593136
      5         11           0        0.068520    1.797688    2.119518
      6         11           0        1.049622   -0.864992    1.132285
      7         11           0        3.340082   -0.376405   -0.735240
 ---------------------------------------------------------------------

 SCF Done:  E(UB3LYP) =  -1136.10644446     A.U. after   23 cycles

 The electronic state is 2-A.
 Alpha  occ. eigenvalues --  -38.44701 -38.44299 -38.44059 -38.43814 -38.43554
 Alpha  occ. eigenvalues --  -38.43413 -38.43228  -2.20608  -2.20399  -2.19956
 Alpha  occ. eigenvalues --   -2.19803  -2.19639  -2.19314  -2.19209  -1.14312
 Alpha  occ. eigenvalues --   -1.14259  -1.14198  -1.14151  -1.14108  -1.14016
 Alpha  occ. eigenvalues --   -1.13665  -1.13618  -1.13558  -1.13502  -1.13469
 Alpha  occ. eigenvalues --   -1.13451  -1.13321  -1.13291  -1.13281  -1.12957
 Alpha  occ. eigenvalues --   -1.12947  -1.12919  -1.12888  -1.12853  -1.12830
 Alpha  occ. eigenvalues --   -0.19633  -0.13324  -0.12666  -0.12310
 Alpha virt. eigenvalues --   -0.05363  -0.04454  -0.04261  -0.03898  -0.03353
 Alpha virt. eigenvalues --   -0.03200  -0.01322  -0.00549  -0.00436   0.00326
 Alpha virt. eigenvalues --    0.00613   0.00621   0.00890   0.00906   0.00957

  Beta  occ. eigenvalues --  -38.44620 -38.44231 -38.44041 -38.43794 -38.43513
  Beta  occ. eigenvalues --  -38.43395 -38.43221  -2.20460  -2.20277  -2.19923
  Beta  occ. eigenvalues --   -2.19770  -2.19570  -2.19282  -2.19202  -1.14200
  Beta  occ. eigenvalues --   -1.14166  -1.14097  -1.14051  -1.14030  -1.13939
  Beta  occ. eigenvalues --   -1.13642  -1.13577  -1.13537  -1.13467  -1.13451
  Beta  occ. eigenvalues --   -1.13419  -1.13277  -1.13249  -1.13191  -1.12932
  Beta  occ. eigenvalues --   -1.12922  -1.12896  -1.12875  -1.12836  -1.12813
  Beta  occ. eigenvalues --   -0.18836  -0.12982  -0.12062
  Beta virt. eigenvalues --   -0.08577  -0.05247  -0.04062  -0.03819  -0.03242
  Beta virt. eigenvalues --   -0.03060  -0.02372  -0.01202  -0.00481  -0.00202
  Beta virt. eigenvalues --    0.00355   0.00653   0.00744   0.00928   0.00972

 Mulliken charges and spin densities:
               1          2
     1  Na  -0.429149   0.191323
     2  Na  -0.082541   0.088678
     3  Na   0.283028  -0.045450
     4  Na   0.005304   0.195562
     5  Na  -0.001267   0.053658
     6  Na  -0.284794   0.293375
     7  Na   0.509420   0.222853
 Sum of Mulliken charges =  -0.00000   1.00000

 Dipole moment (field-independent basis, Debye):
    X=              0.3084    Y=              0.2626    Z=              0.1608  Tot=              0.4358
 Quadrupole moment (field-independent basis, Debye-Ang):
   XX=            -61.4706   YY=            -71.2322   ZZ=            -64.1954
   XY=              0.1343   XZ=             -0.3705   YZ=             -0.2306

 Normal termination of Gaussian 16 at Mon Nov 13 16:05:03 2023.
