 Gaussian 16, Revision B.01,
 Gaussian 16:  ES64L-G16RevB.01 20-Dec-2017

 -------------------------
 #P B3LYP/6-311+g(d) force
 -------------------------

 ------------------------------
 Gaussian input prepared by ASE
 ------------------------------
 Symbolic Z-matrix:
 Charge =  0 Multiplicity = 2

                         Standard orientation:
 ---------------------------------------------------------------------
 Center     Atomic      Atomic             Coordinates (Angstroms)
 Number     Number       Type             X           Y           Z
 ---------------------------------------------------------------------
      1         11           0       -0.502958   -0.185860    1.802270
      2         11           0       -0.433014   -0.175259   -1.789986
      3         11           0       -2.598574   -1.297837   -0.039401
      4         11           0       -2.049295    1.627149   -0.019502
      5         11           0        0.924836    1.792112    0.038754
      6         11           0        3.424983    0.140331   -0.025796
      7         11           0        1.234021   -1.900636    0.033660
 ---------------------------------------------------------------------

 SCF Done:  E(UB3LYP) =  -1136.10361523     A.U. after   20 cycles

 The electronic state is 2-A.
 Alpha  occ. eigenvalues --  -38.45297 -38.44125 -38.43916 -38.43891 -38.43352
 Alpha  occ. eigenvalues --  -38.43074 -38.42607  -2.21177  -2.20122  -2.20040
 Alpha  occ. eigenvalues --   -2.20015  -2.19437  -2.19075  -2.18693  -1.14863
 Alpha  occ. eigenvalues --   -1.14858  -1.14805  -1.13955  -1.13858  -1.13766
 Alpha  occ. eigenvalues --   -1.13750  -1.13703  -1.13692  -1.13669  -1.13589
 Alpha  occ. eigenvalues --   -1.13565  -1.13128  -1.13063  -1.13061  -1.12773
 Alpha  occ. eigenvalues --   -1.12749  -1.12671  -1.12399  -1.12344  -1.12298
 Alpha  occ. eigenvalues --   -0.20601  -0.14417  -0.11811  -0.11629
 Alpha virt. eigenvalues --   -0.06627  -0.04616  -0.03864  -0.03363  -0.02527
 Alpha virt. eigenvalues --   -0.02510  -0.02151  -0.00682  -0.00100   0.00138
 Alpha virt. eigenvalues --    0.00349   0.00451   0.00778   0.00905   0.00991

  Beta  occ. eigenvalues --  -38.45304 -38.44111 -38.43826 -38.43799 -38.43337
  Beta  occ. eigenvalues --  -38.43063 -38.42592  -2.21191  -2.20101  -2.19877
  Beta  occ. eigenvalues --   -2.19849  -2.19416  -2.19061  -2.18672  -1.14877
  Beta  occ. eigenvalues --   -1.14869  -1.14801  -1.13925  -1.13781  -1.13738
  Beta  occ. eigenvalues --   -1.13661  -1.13594  -1.13580  -1.13550  -1.13489
  Beta  occ. eigenvalues --   -1.13465  -1.13114  -1.13055  -1.12986  -1.12766
  Beta  occ. eigenvalues --   -1.12693  -1.12669  -1.12391  -1.12291  -1.12274
  Beta  occ. eigenvalues --   -0.19797  -0.14144  -0.11483
  Beta virt. eigenvalues --   -0.07505  -0.06543  -0.04641  -0.03273  -0.02980
  Beta virt. eigenvalues --   -0.02092  -0.01667  -0.01519  -0.00650   0.00077
  Beta virt. eigenvalues --    0.00144   0.00369   0.00422   0.00947   0.00986

 Mulliken charges and spin densities:
               1          2
     1  Na  -0.184260   0.436466
     2  Na  -0.231956   0.442102
     3  Na   0.384655   0.028226
     4  Na   0.415373   0.065819
     5  Na  -0.122495   0.091027
     6  Na  -0.285507  -0.123963
     7  Na   0.024190   0.060323
 Sum of Mulliken charges =  -0.00000   1.00000

 Dipole moment (field-independent basis, Debye):
    X=              0.5567    Y=             -0.2348    Z=             -0.0133  Tot=              0.6044
 Quadrupole moment (field-independent basis, Debye-Ang):
   XX=            -48.4746   YY=            -74.8651   ZZ=            -70.8000
   XY=              0.5301   XZ=             -0.0151   YZ=              0.0029

 Normal termination of Gaussian 16 at Mon Nov 13 17:05:53 2023.
