 Gaussian 16, Revision B.01,
 Gaussian 16:  ES64L-G16RevB.01 20-Dec-2017

 -------------------------
 #P B3LYP/6-311+g(d) force
 -------------------------

 ------------------------------
 Gaussian input prepared by ASE
 ------------------------------
 Symbolic Z-matrix:
 Charge =  0 Multiplicity = 2

                         Standard orientation:
 ---------------------------------------------------------------------
 Center     Atomic      Atomic             Coordinates (Angstroms)
 Number     Number       Type             X           Y           Z
 ---------------------------------------------------------------------
      1         11           0       -1.829410    0.619037   -1.246446
      2         11           0        1.689056    2.961946   -0.297220
      3         11           0       -4.214085   -0.775510   -0.083526
      4         11           0       -1.886156   -0.059498    1.667535
      5         11           0        0.742664    0.161206    0.234176
      6         11           0        3.378808   -0.960368    1.129510
      7         11           0        2.119122   -1.946812   -1.404028
 ---------------------------------------------------------------------

 SCF Done:  E(UB3LYP) =  -1136.09302087     A.U. after   32 cycles

 The electronic state is 2-A.
 Alpha  occ. eigenvalues --  -38.45052 -38.44492 -38.44428 -38.44091 -38.43826
 Alpha  occ. eigenvalues --  -38.43821 -38.42929  -2.20946  -2.20475  -2.20322
 Alpha  occ. eigenvalues --   -2.20088  -2.19720  -2.19614  -2.19115  -1.14668
 Alpha  occ. eigenvalues --   -1.14625  -1.14570  -1.14235  -1.14111  -1.14057
 Alpha  occ. eigenvalues --   -1.14047  -1.13977  -1.13945  -1.13817  -1.13709
 Alpha  occ. eigenvalues --   -1.13666  -1.13442  -1.13350  -1.13345  -1.13323
 Alpha  occ. eigenvalues --   -1.13268  -1.13254  -1.12838  -1.12780  -1.12674
 Alpha  occ. eigenvalues --   -0.18600  -0.14934  -0.11198  -0.10380
 Alpha virt. eigenvalues --   -0.07287  -0.05367  -0.04381  -0.03163  -0.02793
 Alpha virt. eigenvalues --   -0.02139  -0.02025  -0.01376  -0.00770  -0.00179
 Alpha virt. eigenvalues --   -0.00006   0.00275   0.00375   0.00696   0.00798

  Beta  occ. eigenvalues --  -38.45034 -38.44430 -38.44413 -38.44041 -38.43853
  Beta  occ. eigenvalues --  -38.43797 -38.42890  -2.20916  -2.20362  -2.20295
  Beta  occ. eigenvalues --   -2.19998  -2.19676  -2.19666  -2.19057  -1.14651
  Beta  occ. eigenvalues --   -1.14577  -1.14551  -1.14156  -1.14033  -1.14031
  Beta  occ. eigenvalues --   -1.13973  -1.13945  -1.13930  -1.13749  -1.13632
  Beta  occ. eigenvalues --   -1.13599  -1.13412  -1.13380  -1.13319  -1.13299
  Beta  occ. eigenvalues --   -1.13284  -1.13283  -1.12810  -1.12655  -1.12643
  Beta  occ. eigenvalues --   -0.17866  -0.14685  -0.11169
  Beta virt. eigenvalues --   -0.07005  -0.06661  -0.04700  -0.04106  -0.03126
  Beta virt. eigenvalues --   -0.02601  -0.01686  -0.01453  -0.01176  -0.00310
  Beta virt. eigenvalues --   -0.00090   0.00068   0.00412   0.00503   0.00799

 Mulliken charges and spin densities:
               1          2
     1  Na   1.625951   0.393303
     2  Na   0.453255  -0.135411
     3  Na  -0.236719  -0.007941
     4  Na   1.533259   0.252905
     5  Na  -3.925680   0.725463
     6  Na   0.124470  -0.017387
     7  Na   0.425465  -0.210932
 Sum of Mulliken charges =  -0.00000   1.00000

 Dipole moment (field-independent basis, Debye):
    X=             -0.5626    Y=             -0.0438    Z=             -0.0362  Tot=              0.5655
 Quadrupole moment (field-independent basis, Debye-Ang):
   XX=            -49.9185   YY=            -71.3906   ZZ=            -70.7397
   XY=              5.4377   XZ=              2.9371   YZ=              0.5687

 Normal termination of Gaussian 16 at Mon Nov 13 17:28:17 2023.
