 Gaussian 16, Revision B.01,
 Gaussian 16:  ES64L-G16RevB.01 20-Dec-2017

 -------------------------
 #P B3LYP/6-311+g(d) force
 -------------------------

 ------------------------------
 Gaussian input prepared by ASE
 ------------------------------
 Symbolic Z-matrix:
 Charge =  0 Multiplicity = 2

                         Standard orientation:
 ---------------------------------------------------------------------
 Center     Atomic      Atomic             Coordinates (Angstroms)
 Number     Number       Type             X           Y           Z
 ---------------------------------------------------------------------
      1         11           0        3.955521   -1.319525    1.635705
      2         11           0        2.904925   -0.928534   -1.143671
      3         11           0       -3.602787   -0.531075    1.836418
      4         11           0       -2.889459   -1.969547   -0.695472
      5         11           0       -0.087587   -0.918461   -0.927338
      6         11           0       -0.736150    1.971640   -1.425816
      7         11           0        0.455536    3.695501    0.720173
 ---------------------------------------------------------------------

 SCF Done:  E(UB3LYP) =  -1136.10378100     A.U. after   21 cycles

 The electronic state is 2-A.
 Alpha  occ. eigenvalues --  -38.44870 -38.44482 -38.44208 -38.44066 -38.44057
 Alpha  occ. eigenvalues --  -38.43794 -38.43585  -2.20694  -2.20301  -2.20094
 Alpha  occ. eigenvalues --   -2.20052  -2.19932  -2.19609  -2.19465  -1.14381
 Alpha  occ. eigenvalues --   -1.14329  -1.14315  -1.14009  -1.13935  -1.13933
 Alpha  occ. eigenvalues --   -1.13922  -1.13775  -1.13738  -1.13718  -1.13703
 Alpha  occ. eigenvalues --   -1.13655  -1.13562  -1.13550  -1.13524  -1.13353
 Alpha  occ. eigenvalues --   -1.13249  -1.13244  -1.13141  -1.13092  -1.13055
 Alpha  occ. eigenvalues --   -0.17144  -0.13886  -0.12452  -0.10905
 Alpha virt. eigenvalues --   -0.06131  -0.05378  -0.04657  -0.03397  -0.02921
 Alpha virt. eigenvalues --   -0.02680  -0.01948  -0.01039  -0.00887  -0.00485
 Alpha virt. eigenvalues --   -0.00214  -0.00095   0.00190   0.00510   0.00600

  Beta  occ. eigenvalues --  -38.44804 -38.44431 -38.44211 -38.44059 -38.44002
  Beta  occ. eigenvalues --  -38.43760 -38.43583  -2.20570  -2.20206  -2.20104
  Beta  occ. eigenvalues --   -2.19948  -2.19931  -2.19545  -2.19467  -1.14303
  Beta  occ. eigenvalues --   -1.14243  -1.14229  -1.13951  -1.13891  -1.13869
  Beta  occ. eigenvalues --   -1.13866  -1.13746  -1.13726  -1.13708  -1.13657
  Beta  occ. eigenvalues --   -1.13572  -1.13561  -1.13537  -1.13485  -1.13318
  Beta  occ. eigenvalues --   -1.13205  -1.13200  -1.13132  -1.13094  -1.13028
  Beta  occ. eigenvalues --   -0.16552  -0.13408  -0.12077
  Beta virt. eigenvalues --   -0.07712  -0.05373  -0.04979  -0.04605  -0.03191
  Beta virt. eigenvalues --   -0.02715  -0.02082  -0.01815  -0.00921  -0.00663
  Beta virt. eigenvalues --   -0.00234   0.00057   0.00135   0.00310   0.00605

 Mulliken charges and spin densities:
               1          2
     1  Na   0.096201   0.255955
     2  Na   0.748118  -0.030151
     3  Na  -0.111791   0.315832
     4  Na   1.235720   0.078771
     5  Na  -2.147483   0.227350
     6  Na   0.322915  -0.008469
     7  Na  -0.143682   0.160712
 Sum of Mulliken charges =  -0.00000   1.00000

 Dipole moment (field-independent basis, Debye):
    X=             -0.1514    Y=             -0.2605    Z=              0.9131  Tot=              0.9615
 Quadrupole moment (field-independent basis, Debye-Ang):
   XX=            -65.5739   YY=            -72.7938   ZZ=            -61.0595
   XY=              1.8049   XZ=              2.7918   YZ=              3.2512

 Normal termination of Gaussian 16 at Mon Nov 13 15:17:37 2023.
