 Gaussian 16, Revision B.01,
 Gaussian 16:  ES64L-G16RevB.01 20-Dec-2017

 -------------------------
 #P B3LYP/6-311+g(d) force
 -------------------------

 ------------------------------
 Gaussian input prepared by ASE
 ------------------------------
 Symbolic Z-matrix:
 Charge =  0 Multiplicity = 2

                         Standard orientation:
 ---------------------------------------------------------------------
 Center     Atomic      Atomic             Coordinates (Angstroms)
 Number     Number       Type             X           Y           Z
 ---------------------------------------------------------------------
      1         11           0       -0.001802    0.193340   -1.923922
      2         11           0        0.004899   -1.740628   -0.014060
      3         11           0       -2.441617   -0.856217    0.000059
      4         11           0       -1.427717    1.540262    0.005973
      5         11           0       -0.002332    0.168539    1.924381
      6         11           0        1.421844    1.543566    0.008544
      7         11           0        2.446727   -0.848862   -0.000975
 ---------------------------------------------------------------------

 SCF Done:  E(UB3LYP) =  -1136.04300696     A.U. after   21 cycles

 The electronic state is 2-A.
 Alpha  occ. eigenvalues --  -38.45112 -38.45109 -38.44524 -38.44515 -38.43792
 Alpha  occ. eigenvalues --  -38.43787 -38.43780  -2.21375  -2.21371  -2.20675
 Alpha  occ. eigenvalues --   -2.20665  -2.20143  -2.20075  -2.20036  -1.15280
 Alpha  occ. eigenvalues --   -1.15171  -1.15074  -1.15058  -1.15022  -1.14990
 Alpha  occ. eigenvalues --   -1.14741  -1.14603  -1.14565  -1.14438  -1.14219
 Alpha  occ. eigenvalues --   -1.14202  -1.13859  -1.13719  -1.13695  -1.13673
 Alpha  occ. eigenvalues --   -1.13652  -1.13610  -1.13549  -1.13531  -1.13427
 Alpha  occ. eigenvalues --   -0.22424  -0.14337  -0.13111  -0.12471
 Alpha virt. eigenvalues --   -0.05458  -0.04237  -0.03957  -0.03884  -0.03185
 Alpha virt. eigenvalues --   -0.02920  -0.01152  -0.00255  -0.00249   0.00291
 Alpha virt. eigenvalues --    0.00803   0.00981   0.01125   0.01144   0.01265

  Beta  occ. eigenvalues --  -38.45006 -38.45003 -38.44515 -38.44506 -38.43768
  Beta  occ. eigenvalues --  -38.43767 -38.43761  -2.21184  -2.21180  -2.20665
  Beta  occ. eigenvalues --   -2.20655  -2.20110  -2.20050  -2.20011  -1.15177
  Beta  occ. eigenvalues --   -1.15052  -1.14930  -1.14922  -1.14910  -1.14847
  Beta  occ. eigenvalues --   -1.14720  -1.14598  -1.14555  -1.14433  -1.14162
  Beta  occ. eigenvalues --   -1.14146  -1.13847  -1.13683  -1.13605  -1.13603
  Beta  occ. eigenvalues --   -1.13578  -1.13558  -1.13542  -1.13522  -1.13420
  Beta  occ. eigenvalues --   -0.21504  -0.13909  -0.12085
  Beta virt. eigenvalues --   -0.08820  -0.05485  -0.03950  -0.03539  -0.03186
  Beta virt. eigenvalues --   -0.02251  -0.02172  -0.01061  -0.00230  -0.00063
  Beta virt. eigenvalues --    0.00315   0.00847   0.00976   0.01138   0.01201

 Mulliken charges and spin densities:
               1          2
     1  Na   0.244206   0.516486
     2  Na  -0.039772   0.037343
     3  Na  -0.106462  -0.007238
     4  Na  -0.113909  -0.026797
     5  Na   0.243375   0.515967
     6  Na  -0.117228  -0.027740
     7  Na  -0.110209  -0.008021
 Sum of Mulliken charges =  -0.00000   1.00000

 Dipole moment (field-independent basis, Debye):
    X=              0.0016    Y=              0.0083    Z=              0.0014  Tot=              0.0086
 Quadrupole moment (field-independent basis, Debye-Ang):
   XX=            -59.6691   YY=            -75.2089   ZZ=            -64.6462
   XY=              0.0055   XZ=             -0.0013   YZ=              0.0544

 Normal termination of Gaussian 16 at Mon Nov 13 20:40:50 2023.
