 Gaussian 16, Revision B.01,
 Gaussian 16:  ES64L-G16RevB.01 20-Dec-2017

 -------------------------
 #P B3LYP/6-311+g(d) force
 -------------------------

 ------------------------------
 Gaussian input prepared by ASE
 ------------------------------
 Symbolic Z-matrix:
 Charge =  0 Multiplicity = 2

                         Standard orientation:
 ---------------------------------------------------------------------
 Center     Atomic      Atomic             Coordinates (Angstroms)
 Number     Number       Type             X           Y           Z
 ---------------------------------------------------------------------
      1         11           0        1.708674    1.630500   -0.823839
      2         11           0       -0.799558   -1.588668    2.218951
      3         11           0        3.625904   -0.085681    0.704192
      4         11           0        1.753389   -1.317671   -1.285143
      5         11           0       -3.406468   -1.109744   -1.239444
      6         11           0       -0.769448    0.003767   -0.328988
      7         11           0       -2.112493    2.467496    0.754270
 ---------------------------------------------------------------------

 SCF Done:  E(UB3LYP) =  -1136.09276595     A.U. after   29 cycles

 The electronic state is 2-A.
 Alpha  occ. eigenvalues --  -38.46075 -38.45217 -38.44681 -38.43980 -38.43785
 Alpha  occ. eigenvalues --  -38.43371 -38.42640  -2.21948  -2.21025  -2.20648
 Alpha  occ. eigenvalues --   -2.19808  -2.19760  -2.19183  -2.18823  -1.15652
 Alpha  occ. eigenvalues --   -1.15619  -1.15564  -1.14716  -1.14651  -1.14633
 Alpha  occ. eigenvalues --   -1.14419  -1.14288  -1.14244  -1.13528  -1.13510
 Alpha  occ. eigenvalues --   -1.13419  -1.13415  -1.13412  -1.13337  -1.12920
 Alpha  occ. eigenvalues --   -1.12831  -1.12803  -1.12550  -1.12504  -1.12384
 Alpha  occ. eigenvalues --   -0.18664  -0.14309  -0.10936  -0.10680
 Alpha virt. eigenvalues --   -0.07357  -0.05355  -0.04411  -0.03151  -0.02830
 Alpha virt. eigenvalues --   -0.02336  -0.01779  -0.01161  -0.00609  -0.00159
 Alpha virt. eigenvalues --   -0.00010   0.00155   0.00377   0.00580   0.00711

  Beta  occ. eigenvalues --  -38.46077 -38.45158 -38.44666 -38.43902 -38.43775
  Beta  occ. eigenvalues --  -38.43363 -38.42616  -2.21950  -2.20914  -2.20622
  Beta  occ. eigenvalues --   -2.19745  -2.19663  -2.19170  -2.18790  -1.15653
  Beta  occ. eigenvalues --   -1.15624  -1.15558  -1.14641  -1.14570  -1.14560
  Beta  occ. eigenvalues --   -1.14396  -1.14266  -1.14219  -1.13499  -1.13429
  Beta  occ. eigenvalues --   -1.13403  -1.13317  -1.13314  -1.13311  -1.12912
  Beta  occ. eigenvalues --   -1.12812  -1.12795  -1.12531  -1.12403  -1.12372
  Beta  occ. eigenvalues --   -0.18110  -0.13970  -0.10578
  Beta virt. eigenvalues --   -0.07191  -0.06889  -0.05344  -0.03845  -0.02814
  Beta virt. eigenvalues --   -0.02531  -0.01952  -0.01208  -0.00979  -0.00318
  Beta virt. eigenvalues --   -0.00026   0.00033   0.00222   0.00472   0.00662

 Mulliken charges and spin densities:
               1          2
     1  Na   0.457179  -0.250567
     2  Na   0.174713   0.363901
     3  Na   0.277678   0.027568
     4  Na  -0.091533   0.028462
     5  Na   0.437190   0.321556
     6  Na  -2.105542   0.394416
     7  Na   0.850315   0.114665
 Sum of Mulliken charges =  -0.00000   1.00000

 Dipole moment (field-independent basis, Debye):
    X=              1.0990    Y=             -0.3747    Z=              0.4465  Tot=              1.2440
 Quadrupole moment (field-independent basis, Debye-Ang):
   XX=            -45.5329   YY=            -76.5223   ZZ=            -68.6346
   XY=              0.1025   XZ=              2.9237   YZ=              1.9776

 Normal termination of Gaussian 16 at Mon Nov 13 18:33:19 2023.
