 Gaussian 16, Revision B.01,
 Gaussian 16:  ES64L-G16RevB.01 20-Dec-2017

 -------------------------
 #P B3LYP/6-311+g(d) force
 -------------------------

 ------------------------------
 Gaussian input prepared by ASE
 ------------------------------
 Symbolic Z-matrix:
 Charge =  0 Multiplicity = 2

                         Standard orientation:
 ---------------------------------------------------------------------
 Center     Atomic      Atomic             Coordinates (Angstroms)
 Number     Number       Type             X           Y           Z
 ---------------------------------------------------------------------
      1         11           0        3.197957    2.593137   -0.647304
      2         11           0        4.940035    0.399870    0.423370
      3         11           0        2.951397   -1.804351    0.866749
      4         11           0        0.723428   -1.915100   -1.141674
      5         11           0       -1.555605   -0.137914   -0.350577
      6         11           0       -3.927355    0.707348    1.281098
      7         11           0       -6.329856    0.157010   -0.431661
 ---------------------------------------------------------------------

 SCF Done:  E(UB3LYP) =  -1136.10094758     A.U. after   20 cycles

 The electronic state is 2-A.
 Alpha  occ. eigenvalues --  -38.45016 -38.44608 -38.44432 -38.44278 -38.43916
 Alpha  occ. eigenvalues --  -38.43658 -38.43601  -2.20829  -2.20483  -2.20260
 Alpha  occ. eigenvalues --   -2.20184  -2.19807  -2.19538  -2.19476  -1.14536
 Alpha  occ. eigenvalues --   -1.14468  -1.14463  -1.14207  -1.14116  -1.14103
 Alpha  occ. eigenvalues --   -1.13941  -1.13894  -1.13890  -1.13879  -1.13844
 Alpha  occ. eigenvalues --   -1.13798  -1.13528  -1.13445  -1.13426  -1.13215
 Alpha  occ. eigenvalues --   -1.13191  -1.13173  -1.13151  -1.13109  -1.13105
 Alpha  occ. eigenvalues --   -0.16426  -0.14990  -0.12277  -0.10796
 Alpha virt. eigenvalues --   -0.06956  -0.04901  -0.04147  -0.03823  -0.03258
 Alpha virt. eigenvalues --   -0.02596  -0.01931  -0.01834  -0.01145  -0.00555
 Alpha virt. eigenvalues --   -0.00065  -0.00014   0.00290   0.00464   0.00581

  Beta  occ. eigenvalues --  -38.44973 -38.44613 -38.44353 -38.44203 -38.43879
  Beta  occ. eigenvalues --  -38.43663 -38.43611  -2.20748  -2.20496  -2.20112
  Beta  occ. eigenvalues --   -2.20045  -2.19737  -2.19554  -2.19501  -1.14488
  Beta  occ. eigenvalues --   -1.14413  -1.14407  -1.14198  -1.14129  -1.14095
  Beta  occ. eigenvalues --   -1.13849  -1.13807  -1.13793  -1.13777  -1.13754
  Beta  occ. eigenvalues --   -1.13698  -1.13500  -1.13397  -1.13378  -1.13211
  Beta  occ. eigenvalues --   -1.13193  -1.13168  -1.13147  -1.13128  -1.13104
  Beta  occ. eigenvalues --   -0.15930  -0.14547  -0.11853
  Beta virt. eigenvalues --   -0.07579  -0.06298  -0.04599  -0.03910  -0.03626
  Beta virt. eigenvalues --   -0.02715  -0.02479  -0.01661  -0.01523  -0.00886
  Beta virt. eigenvalues --   -0.00321   0.00048   0.00191   0.00495   0.00526

 Mulliken charges and spin densities:
               1          2
     1  Na   0.155767   0.399174
     2  Na  -0.155742  -0.086551
     3  Na   0.386902   0.395579
     4  Na   0.245601   0.031663
     5  Na  -1.215072   0.057109
     6  Na   0.453296  -0.022525
     7  Na   0.129248   0.225552
 Sum of Mulliken charges =  -0.00000   1.00000

 Dipole moment (field-independent basis, Debye):
    X=             -1.6291    Y=              0.1591    Z=             -0.1359  Tot=              1.6425
 Quadrupole moment (field-independent basis, Debye-Ang):
   XX=            -60.8508   YY=            -71.8627   ZZ=            -66.2218
   XY=             -1.6005   XZ=              3.9632   YZ=              0.6464

 Normal termination of Gaussian 16 at Mon Nov 13 14:47:22 2023.
