 Gaussian 16, Revision B.01,
 Gaussian 16:  ES64L-G16RevB.01 20-Dec-2017

 -------------------------
 #P B3LYP/6-311+g(d) force
 -------------------------

 ------------------------------
 Gaussian input prepared by ASE
 ------------------------------
 Symbolic Z-matrix:
 Charge =  0 Multiplicity = 2

                         Standard orientation:
 ---------------------------------------------------------------------
 Center     Atomic      Atomic             Coordinates (Angstroms)
 Number     Number       Type             X           Y           Z
 ---------------------------------------------------------------------
      1         11           0       -1.555721    2.069859    0.030959
      2         11           0        2.741313   -2.108971   -0.119382
      3         11           0        2.701515    2.118914   -0.132743
      4         11           0        0.585117   -0.016181   -0.239022
      5         11           0       -1.826005   -0.101284   -2.015418
      6         11           0       -1.555971   -2.066215    0.230286
      7         11           0       -1.090248    0.103878    2.245319
 ---------------------------------------------------------------------

 SCF Done:  E(UB3LYP) =  -1136.10207264     A.U. after   23 cycles

 The electronic state is 2-A.
 Alpha  occ. eigenvalues --  -38.44757 -38.44549 -38.44292 -38.44257 -38.43363
 Alpha  occ. eigenvalues --  -38.43333 -38.42273  -2.20762  -2.20552  -2.20081
 Alpha  occ. eigenvalues --   -2.20046  -2.19351  -2.19321  -2.18576  -1.14471
 Alpha  occ. eigenvalues --   -1.14389  -1.14357  -1.14263  -1.14188  -1.14156
 Alpha  occ. eigenvalues --   -1.13797  -1.13761  -1.13741  -1.13706  -1.13688
 Alpha  occ. eigenvalues --   -1.13655  -1.13080  -1.13051  -1.13039  -1.13011
 Alpha  occ. eigenvalues --   -1.12924  -1.12895  -1.12297  -1.12244  -1.12169
 Alpha  occ. eigenvalues --   -0.19576  -0.12907  -0.12049  -0.11861
 Alpha virt. eigenvalues --   -0.05777  -0.05120  -0.03527  -0.03304  -0.02998
 Alpha virt. eigenvalues --   -0.02900  -0.01403  -0.01116  -0.00415   0.00221
 Alpha virt. eigenvalues --    0.00328   0.00380   0.00780   0.00828   0.00882

  Beta  occ. eigenvalues --  -38.44645 -38.44457 -38.44300 -38.44267 -38.43343
  Beta  occ. eigenvalues --  -38.43314 -38.42252  -2.20558  -2.20383  -2.20096
  Beta  occ. eigenvalues --   -2.20063  -2.19322  -2.19294  -2.18544  -1.14339
  Beta  occ. eigenvalues --   -1.14235  -1.14218  -1.14153  -1.14061  -1.14042
  Beta  occ. eigenvalues --   -1.13807  -1.13772  -1.13749  -1.13715  -1.13701
  Beta  occ. eigenvalues --   -1.13668  -1.13069  -1.13042  -1.12959  -1.12930
  Beta  occ. eigenvalues --   -1.12914  -1.12885  -1.12240  -1.12198  -1.12158
  Beta  occ. eigenvalues --   -0.18699  -0.12774  -0.11597
  Beta virt. eigenvalues --   -0.07835  -0.05732  -0.04840  -0.03345  -0.02562
  Beta virt. eigenvalues --   -0.02248  -0.02083  -0.01355  -0.01100  -0.00110
  Beta virt. eigenvalues --    0.00236   0.00331   0.00439   0.00820   0.00856

 Mulliken charges and spin densities:
               1          2
     1  Na   0.374627  -0.008453
     2  Na   0.441941  -0.100051
     3  Na   0.463233  -0.111223
     4  Na  -2.007862   0.804852
     5  Na   0.234807   0.047264
     6  Na   0.378288  -0.000646
     7  Na   0.114965   0.368257
 Sum of Mulliken charges =  -0.00000   1.00000

 Dipole moment (field-independent basis, Debye):
    X=              0.2048    Y=              0.0254    Z=              0.1219  Tot=              0.2397
 Quadrupole moment (field-independent basis, Debye-Ang):
   XX=            -59.4319   YY=            -65.8840   ZZ=            -66.1540
   XY=              0.1657   XZ=              0.8797   YZ=             -0.1380

 Normal termination of Gaussian 16 at Mon Nov 13 20:11:00 2023.
