 Gaussian 16, Revision B.01,
 Gaussian 16:  ES64L-G16RevB.01 20-Dec-2017

 -------------------------
 #P B3LYP/6-311+g(d) force
 -------------------------

 ------------------------------
 Gaussian input prepared by ASE
 ------------------------------
 Symbolic Z-matrix:
 Charge =  0 Multiplicity = 2

                         Standard orientation:
 ---------------------------------------------------------------------
 Center     Atomic      Atomic             Coordinates (Angstroms)
 Number     Number       Type             X           Y           Z
 ---------------------------------------------------------------------
      1         11           0       -0.368760   -0.459835    1.553130
      2         11           0       -0.302991   -0.411026   -1.542832
      3         11           0        1.738467   -1.791888    0.026843
      4         11           0        3.208944    0.731076   -0.033814
      5         11           0        0.455327    1.702575    0.054942
      6         11           0       -2.453826   -1.253882   -0.053245
      7         11           0       -2.277160    1.482980   -0.005023
 ---------------------------------------------------------------------

 SCF Done:  E(UB3LYP) =  -1136.07325033     A.U. after   21 cycles

 The electronic state is 2-A.
 Alpha  occ. eigenvalues --  -38.45335 -38.44868 -38.44045 -38.43891 -38.43841
 Alpha  occ. eigenvalues --  -38.43653 -38.43281  -2.21246  -2.20977  -2.20167
 Alpha  occ. eigenvalues --   -2.20150  -2.20096  -2.19683  -2.19489  -1.14950
 Alpha  occ. eigenvalues --   -1.14944  -1.14874  -1.14864  -1.14689  -1.14637
 Alpha  occ. eigenvalues --   -1.14127  -1.13956  -1.13864  -1.13810  -1.13782
 Alpha  occ. eigenvalues --   -1.13746  -1.13721  -1.13678  -1.13663  -1.13320
 Alpha  occ. eigenvalues --   -1.13307  -1.13278  -1.13101  -1.13060  -1.13039
 Alpha  occ. eigenvalues --   -0.21189  -0.14925  -0.11923  -0.11382
 Alpha virt. eigenvalues --   -0.06710  -0.04905  -0.03909  -0.03357  -0.02329
 Alpha virt. eigenvalues --   -0.02221  -0.01983  -0.00774  -0.00024   0.00170
 Alpha virt. eigenvalues --    0.00281   0.00500   0.00816   0.00927   0.00943

  Beta  occ. eigenvalues --  -38.45340 -38.44847 -38.44031 -38.43810 -38.43757
  Beta  occ. eigenvalues --  -38.43643 -38.43255  -2.21259  -2.20946  -2.20146
  Beta  occ. eigenvalues --   -2.20007  -2.19946  -2.19671  -2.19452  -1.14962
  Beta  occ. eigenvalues --   -1.14954  -1.14855  -1.14854  -1.14625  -1.14600
  Beta  occ. eigenvalues --   -1.14075  -1.13901  -1.13784  -1.13761  -1.13688
  Beta  occ. eigenvalues --   -1.13673  -1.13634  -1.13589  -1.13560  -1.13299
  Beta  occ. eigenvalues --   -1.13274  -1.13250  -1.13075  -1.13023  -1.12957
  Beta  occ. eigenvalues --   -0.20388  -0.14585  -0.11626
  Beta virt. eigenvalues --   -0.07198  -0.06654  -0.04915  -0.03293  -0.02963
  Beta virt. eigenvalues --   -0.02248  -0.01438  -0.00994  -0.00747   0.00155
  Beta virt. eigenvalues --    0.00172   0.00292   0.00479   0.00842   0.00931

 Mulliken charges and spin densities:
               1          2
     1  Na  -0.321906   0.297597
     2  Na  -0.389028   0.305007
     3  Na   0.173714   0.068473
     4  Na  -0.370903  -0.081005
     5  Na  -0.115712   0.168096
     6  Na   0.735296   0.150812
     7  Na   0.288539   0.091020
 Sum of Mulliken charges =  -0.00000   1.00000

 Dipole moment (field-independent basis, Debye):
    X=              0.6440    Y=             -0.2149    Z=             -0.0057  Tot=              0.6789
 Quadrupole moment (field-independent basis, Debye-Ang):
   XX=            -46.8989   YY=            -73.7279   ZZ=            -73.2086
   XY=              0.1143   XZ=             -0.0167   YZ=              0.0010

 Normal termination of Gaussian 16 at Mon Nov 13 18:23:09 2023.
