 Gaussian 16, Revision B.01,
 Gaussian 16:  ES64L-G16RevB.01 20-Dec-2017

 -------------------------
 #P B3LYP/6-311+g(d) force
 -------------------------

 ------------------------------
 Gaussian input prepared by ASE
 ------------------------------
 Symbolic Z-matrix:
 Charge =  0 Multiplicity = 2

                         Standard orientation:
 ---------------------------------------------------------------------
 Center     Atomic      Atomic             Coordinates (Angstroms)
 Number     Number       Type             X           Y           Z
 ---------------------------------------------------------------------
      1         11           0       -0.708895    1.888372   -1.317703
      2         11           0        0.541283    1.926075    1.392297
      3         11           0       -4.068289   -1.198668   -0.580794
      4         11           0       -1.892217    0.237497    0.892921
      5         11           0        0.065928   -2.026881    0.621879
      6         11           0        1.654144    0.128763   -0.742212
      7         11           0        4.408046   -0.955160   -0.266388
 ---------------------------------------------------------------------

 SCF Done:  E(UB3LYP) =  -1136.09857600     A.U. after   24 cycles

 The electronic state is 2-A.
 Alpha  occ. eigenvalues --  -38.44703 -38.44695 -38.44159 -38.44106 -38.43944
 Alpha  occ. eigenvalues --  -38.43451 -38.43245  -2.20584  -2.20501  -2.20113
 Alpha  occ. eigenvalues --   -2.19979  -2.19946  -2.19534  -2.19360  -1.14336
 Alpha  occ. eigenvalues --   -1.14244  -1.14204  -1.14165  -1.14143  -1.14120
 Alpha  occ. eigenvalues --   -1.13894  -1.13819  -1.13742  -1.13694  -1.13653
 Alpha  occ. eigenvalues --   -1.13615  -1.13607  -1.13596  -1.13486  -1.13221
 Alpha  occ. eigenvalues --   -1.13187  -1.13120  -1.13044  -1.13015  -1.12963
 Alpha  occ. eigenvalues --   -0.19348  -0.13653  -0.12136  -0.10874
 Alpha virt. eigenvalues --   -0.07275  -0.05084  -0.03721  -0.03395  -0.02705
 Alpha virt. eigenvalues --   -0.02402  -0.01878  -0.01521  -0.00589  -0.00166
 Alpha virt. eigenvalues --   -0.00018   0.00090   0.00546   0.00675   0.00853

  Beta  occ. eigenvalues --  -38.44673 -38.44660 -38.44127 -38.44085 -38.43898
  Beta  occ. eigenvalues --  -38.43435 -38.43216  -2.20510  -2.20460  -2.20077
  Beta  occ. eigenvalues --   -2.19919  -2.19859  -2.19509  -2.19319  -1.14288
  Beta  occ. eigenvalues --   -1.14177  -1.14175  -1.14116  -1.14115  -1.14092
  Beta  occ. eigenvalues --   -1.13869  -1.13794  -1.13685  -1.13653  -1.13597
  Beta  occ. eigenvalues --   -1.13569  -1.13555  -1.13550  -1.13430  -1.13206
  Beta  occ. eigenvalues --   -1.13129  -1.13103  -1.13011  -1.12957  -1.12908
  Beta  occ. eigenvalues --   -0.18634  -0.13227  -0.11959
  Beta virt. eigenvalues --   -0.07316  -0.06767  -0.04841  -0.03501  -0.02906
  Beta virt. eigenvalues --   -0.02549  -0.02079  -0.01440  -0.01028  -0.00306
  Beta virt. eigenvalues --   -0.00058   0.00055   0.00204   0.00668   0.00723

 Mulliken charges and spin densities:
               1          2
     1  Na   1.048386   0.273207
     2  Na   0.248392   0.309476
     3  Na   0.099362   0.136705
     4  Na   0.010593   0.189964
     5  Na  -0.240663   0.295349
     6  Na  -0.875094  -0.312526
     7  Na  -0.290976   0.107824
 Sum of Mulliken charges =  -0.00000   1.00000

 Dipole moment (field-independent basis, Debye):
    X=              0.5652    Y=              0.1010    Z=              0.6057  Tot=              0.8346
 Quadrupole moment (field-independent basis, Debye-Ang):
   XX=            -56.5328   YY=            -69.0702   ZZ=            -69.1208
   XY=              0.1942   XZ=              4.3098   YZ=              2.8708

 Normal termination of Gaussian 16 at Mon Nov 13 16:19:17 2023.
