 Gaussian 16, Revision B.01,
 Gaussian 16:  ES64L-G16RevB.01 20-Dec-2017

 -------------------------
 #P B3LYP/6-311+g(d) force
 -------------------------

 ------------------------------
 Gaussian input prepared by ASE
 ------------------------------
 Symbolic Z-matrix:
 Charge =  0 Multiplicity = 2

                         Standard orientation:
 ---------------------------------------------------------------------
 Center     Atomic      Atomic             Coordinates (Angstroms)
 Number     Number       Type             X           Y           Z
 ---------------------------------------------------------------------
      1         11           0       -0.639888   -1.258308    0.740123
      2         11           0       -0.652458    1.562102    1.771649
      3         11           0       -3.419777   -1.782220   -0.250806
      4         11           0       -2.137927    0.881055   -0.735040
      5         11           0        0.581038    2.138330   -0.902282
      6         11           0        1.777499   -0.619620   -0.930621
      7         11           0        4.491514   -0.921340    0.306978
 ---------------------------------------------------------------------

 SCF Done:  E(UB3LYP) =  -1136.09749743     A.U. after   24 cycles

 The electronic state is 2-A.
 Alpha  occ. eigenvalues --  -38.45379 -38.44234 -38.44008 -38.43936 -38.43633
 Alpha  occ. eigenvalues --  -38.43630 -38.43365  -2.21160  -2.20302  -2.20038
 Alpha  occ. eigenvalues --   -2.19969  -2.19654  -2.19532  -2.19377  -1.14855
 Alpha  occ. eigenvalues --   -1.14808  -1.14803  -1.14063  -1.14043  -1.13970
 Alpha  occ. eigenvalues --   -1.13766  -1.13714  -1.13670  -1.13653  -1.13634
 Alpha  occ. eigenvalues --   -1.13579  -1.13321  -1.13297  -1.13265  -1.13189
 Alpha  occ. eigenvalues --   -1.13178  -1.13145  -1.13029  -1.13002  -1.12960
 Alpha  occ. eigenvalues --   -0.19564  -0.13906  -0.12206  -0.10900
 Alpha virt. eigenvalues --   -0.07370  -0.04969  -0.03458  -0.03311  -0.03135
 Alpha virt. eigenvalues --   -0.02338  -0.02086  -0.01217  -0.00498  -0.00230
 Alpha virt. eigenvalues --   -0.00087   0.00350   0.00516   0.00759   0.00803

  Beta  occ. eigenvalues --  -38.45388 -38.44194 -38.43988 -38.43902 -38.43623
  Beta  occ. eigenvalues --  -38.43559 -38.43329  -2.21176  -2.20234  -2.19981
  Beta  occ. eigenvalues --   -2.19936  -2.19520  -2.19519  -2.19314  -1.14866
  Beta  occ. eigenvalues --   -1.14820  -1.14812  -1.14025  -1.13998  -1.13876
  Beta  occ. eigenvalues --   -1.13724  -1.13638  -1.13632  -1.13621  -1.13614
  Beta  occ. eigenvalues --   -1.13535  -1.13248  -1.13201  -1.13178  -1.13171
  Beta  occ. eigenvalues --   -1.13154  -1.13128  -1.12983  -1.12955  -1.12894
  Beta  occ. eigenvalues --   -0.18779  -0.13735  -0.12080
  Beta virt. eigenvalues --   -0.07184  -0.06749  -0.04813  -0.03223  -0.03144
  Beta virt. eigenvalues --   -0.02710  -0.01895  -0.01386  -0.00926  -0.00207
  Beta virt. eigenvalues --   -0.00119   0.00015   0.00389   0.00680   0.00800

 Mulliken charges and spin densities:
               1          2
     1  Na  -0.503524   0.463634
     2  Na  -0.417702   0.106741
     3  Na   0.237950  -0.102495
     4  Na   0.359193   0.286583
     5  Na  -0.170202   0.368027
     6  Na   0.837411  -0.099114
     7  Na  -0.343127  -0.023376
 Sum of Mulliken charges =  -0.00000   1.00000

 Dipole moment (field-independent basis, Debye):
    X=              0.9126    Y=              0.3553    Z=              0.5863  Tot=              1.1414
 Quadrupole moment (field-independent basis, Debye-Ang):
   XX=            -50.1774   YY=            -69.1996   ZZ=            -73.0649
   XY=              0.4389   XZ=              2.8315   YZ=              0.1753

 Normal termination of Gaussian 16 at Mon Nov 13 16:12:30 2023.
