 Gaussian 16, Revision B.01,
 Gaussian 16:  ES64L-G16RevB.01 20-Dec-2017

 -------------------------
 #P B3LYP/6-311+g(d) force
 -------------------------

 ------------------------------
 Gaussian input prepared by ASE
 ------------------------------
 Symbolic Z-matrix:
 Charge =  0 Multiplicity = 2

                         Standard orientation:
 ---------------------------------------------------------------------
 Center     Atomic      Atomic             Coordinates (Angstroms)
 Number     Number       Type             X           Y           Z
 ---------------------------------------------------------------------
      1         11           0       -3.159691    0.026296   -0.762326
      2         11           0       -2.215401   -2.477077    0.588368
      3         11           0        4.451014    0.137125    0.614802
      4         11           0        2.423167   -1.685912   -0.631848
      5         11           0       -0.239542   -0.359479   -0.211123
      6         11           0       -1.739362    1.850854    1.150959
      7         11           0        0.479814    2.508192   -0.748833
 ---------------------------------------------------------------------

 SCF Done:  E(UB3LYP) =  -1136.10129863     A.U. after   23 cycles

 The electronic state is 2-A.
 Alpha  occ. eigenvalues --  -38.44561 -38.44243 -38.44098 -38.43979 -38.43654
 Alpha  occ. eigenvalues --  -38.43576 -38.42940  -2.20554  -2.20233  -2.19993
 Alpha  occ. eigenvalues --   -2.19884  -2.19537  -2.19420  -2.19152  -1.14305
 Alpha  occ. eigenvalues --   -1.14232  -1.14192  -1.13965  -1.13875  -1.13857
 Alpha  occ. eigenvalues --   -1.13703  -1.13641  -1.13603  -1.13587  -1.13522
 Alpha  occ. eigenvalues --   -1.13469  -1.13310  -1.13256  -1.13176  -1.13047
 Alpha  occ. eigenvalues --   -1.13039  -1.12996  -1.12818  -1.12798  -1.12739
 Alpha  occ. eigenvalues --   -0.18796  -0.14083  -0.12603  -0.09986
 Alpha virt. eigenvalues --   -0.06395  -0.05612  -0.04413  -0.03394  -0.02580
 Alpha virt. eigenvalues --   -0.02162  -0.01678  -0.01150  -0.00678  -0.00281
 Alpha virt. eigenvalues --   -0.00135   0.00117   0.00469   0.00616   0.00698

  Beta  occ. eigenvalues --  -38.44527 -38.44225 -38.44094 -38.43962 -38.43650
  Beta  occ. eigenvalues --  -38.43486 -38.42892  -2.20495  -2.20202  -2.19989
  Beta  occ. eigenvalues --   -2.19854  -2.19538  -2.19254  -2.19068  -1.14271
  Beta  occ. eigenvalues --   -1.14183  -1.14139  -1.13936  -1.13859  -1.13820
  Beta  occ. eigenvalues --   -1.13696  -1.13641  -1.13578  -1.13554  -1.13502
  Beta  occ. eigenvalues --   -1.13454  -1.13255  -1.13235  -1.13184  -1.12934
  Beta  occ. eigenvalues --   -1.12925  -1.12904  -1.12758  -1.12745  -1.12673
  Beta  occ. eigenvalues --   -0.18332  -0.13345  -0.12373
  Beta virt. eigenvalues --   -0.06443  -0.06219  -0.05373  -0.04241  -0.02779
  Beta virt. eigenvalues --   -0.02352  -0.01945  -0.01297  -0.00950  -0.00476
  Beta virt. eigenvalues --   -0.00056   0.00150   0.00331   0.00626   0.00688

 Mulliken charges and spin densities:
               1          2
     1  Na   1.614999   0.342852
     2  Na   0.584280   0.090353
     3  Na  -0.208536   0.523767
     4  Na   0.028815   0.190051
     5  Na  -4.435891  -0.178728
     6  Na   1.257733   0.115839
     7  Na   1.158600  -0.084133
 Sum of Mulliken charges =  -0.00000   1.00000

 Dipole moment (field-independent basis, Debye):
    X=             -1.5107    Y=              0.5564    Z=             -0.0919  Tot=              1.6125
 Quadrupole moment (field-independent basis, Debye-Ang):
   XX=            -74.8413   YY=            -64.3830   ZZ=            -64.2416
   XY=              5.2211   XZ=              0.2444   YZ=             -1.4704

 Normal termination of Gaussian 16 at Mon Nov 13 17:27:47 2023.
