 Gaussian 16, Revision B.01,
 Gaussian 16:  ES64L-G16RevB.01 20-Dec-2017

 -------------------------
 #P B3LYP/6-311+g(d) force
 -------------------------

 ------------------------------
 Gaussian input prepared by ASE
 ------------------------------
 Symbolic Z-matrix:
 Charge =  0 Multiplicity = 2

                         Standard orientation:
 ---------------------------------------------------------------------
 Center     Atomic      Atomic             Coordinates (Angstroms)
 Number     Number       Type             X           Y           Z
 ---------------------------------------------------------------------
      1         11           0        3.160569    1.566933   -0.232082
      2         11           0        4.892922   -0.208927    1.457032
      3         11           0        3.727609   -1.244767   -1.105921
      4         11           0        0.900409   -0.366067   -0.628096
      5         11           0       -1.782574    0.135383    0.612072
      6         11           0       -4.393889    0.968568   -0.609446
      7         11           0       -6.505047   -0.851122    0.506441
 ---------------------------------------------------------------------

 SCF Done:  E(UB3LYP) =  -1136.09264471     A.U. after   24 cycles

 The electronic state is 2-A.
 Alpha  occ. eigenvalues --  -38.45911 -38.44329 -38.44186 -38.44162 -38.44114
 Alpha  occ. eigenvalues --  -38.43579 -38.42914  -2.21880  -2.20245  -2.20140
 Alpha  occ. eigenvalues --   -2.20040  -2.19996  -2.19473  -2.18910  -1.15595
 Alpha  occ. eigenvalues --   -1.15546  -1.15509  -1.13990  -1.13903  -1.13869
 Alpha  occ. eigenvalues --   -1.13828  -1.13818  -1.13779  -1.13758  -1.13690
 Alpha  occ. eigenvalues --   -1.13683  -1.13635  -1.13634  -1.13552  -1.13171
 Alpha  occ. eigenvalues --   -1.13124  -1.13083  -1.12620  -1.12544  -1.12530
 Alpha  occ. eigenvalues --   -0.18080  -0.14905  -0.11849  -0.10233
 Alpha virt. eigenvalues --   -0.07120  -0.05826  -0.04122  -0.03500  -0.02803
 Alpha virt. eigenvalues --   -0.02277  -0.01886  -0.01524  -0.00954  -0.00726
 Alpha virt. eigenvalues --   -0.00396   0.00059   0.00319   0.00394   0.00540

  Beta  occ. eigenvalues --  -38.45883 -38.44293 -38.44164 -38.44157 -38.44048
  Beta  occ. eigenvalues --  -38.43552 -38.42893  -2.21834  -2.20180  -2.20046
  Beta  occ. eigenvalues --   -2.20021  -2.19943  -2.19422  -2.18880  -1.15561
  Beta  occ. eigenvalues --   -1.15493  -1.15464  -1.13944  -1.13838  -1.13824
  Beta  occ. eigenvalues --   -1.13795  -1.13758  -1.13744  -1.13699  -1.13688
  Beta  occ. eigenvalues --   -1.13602  -1.13600  -1.13597  -1.13529  -1.13145
  Beta  occ. eigenvalues --   -1.13089  -1.13048  -1.12606  -1.12525  -1.12457
  Beta  occ. eigenvalues --   -0.17456  -0.14657  -0.11453
  Beta virt. eigenvalues --   -0.07057  -0.06388  -0.05485  -0.04007  -0.03320
  Beta virt. eigenvalues --   -0.02683  -0.01629  -0.01458  -0.01391  -0.00689
  Beta virt. eigenvalues --   -0.00306  -0.00230   0.00337   0.00352   0.00464

 Mulliken charges and spin densities:
               1          2
     1  Na   0.264575   0.438589
     2  Na  -0.015450   0.162957
     3  Na   1.256542  -0.146372
     4  Na  -1.265956   0.367348
     5  Na  -0.608322   0.026796
     6  Na   0.209216   0.007616
     7  Na   0.159395   0.143066
 Sum of Mulliken charges =  -0.00000   1.00000

 Dipole moment (field-independent basis, Debye):
    X=              0.7886    Y=             -0.1543    Z=              0.2030  Tot=              0.8288
 Quadrupole moment (field-independent basis, Debye-Ang):
   XX=            -63.2669   YY=            -64.6947   ZZ=            -70.2063
   XY=              0.7235   XZ=             -2.2312   YZ=             -7.3285

 Normal termination of Gaussian 16 at Mon Nov 13 14:51:42 2023.
