 Gaussian 16, Revision B.01,
 Gaussian 16:  ES64L-G16RevB.01 20-Dec-2017

 -------------------------
 #P B3LYP/6-311+g(d) force
 -------------------------

 ------------------------------
 Gaussian input prepared by ASE
 ------------------------------
 Symbolic Z-matrix:
 Charge =  0 Multiplicity = 2

                         Standard orientation:
 ---------------------------------------------------------------------
 Center     Atomic      Atomic             Coordinates (Angstroms)
 Number     Number       Type             X           Y           Z
 ---------------------------------------------------------------------
      1         11           0        0.284515   -0.009551   -1.305901
      2         11           0       -1.902060    1.992825   -0.794059
      3         11           0       -1.924083   -1.989264   -0.789720
      4         11           0       -2.309872    0.007191    1.421897
      5         11           0        0.685341   -0.023126    1.667720
      6         11           0        2.563510    1.505445   -0.090092
      7         11           0        2.602648   -1.483520   -0.109846
 ---------------------------------------------------------------------

 SCF Done:  E(UB3LYP) =  -1136.10176046     A.U. after   22 cycles

 The electronic state is 2-A.
 Alpha  occ. eigenvalues --  -38.44331 -38.44305 -38.44239 -38.44106 -38.43516
 Alpha  occ. eigenvalues --  -38.43482 -38.43315  -2.20314  -2.20281  -2.20247
 Alpha  occ. eigenvalues --   -2.20199  -2.19538  -2.19421  -2.19387  -1.14225
 Alpha  occ. eigenvalues --   -1.14060  -1.14009  -1.14003  -1.13968  -1.13948
 Alpha  occ. eigenvalues --   -1.13918  -1.13883  -1.13850  -1.13796  -1.13741
 Alpha  occ. eigenvalues --   -1.13732  -1.13296  -1.13237  -1.13214  -1.13084
 Alpha  occ. eigenvalues --   -1.13053  -1.13023  -1.13007  -1.12997  -1.12970
 Alpha  occ. eigenvalues --   -0.19978  -0.14720  -0.11657  -0.11202
 Alpha virt. eigenvalues --   -0.05936  -0.05310  -0.04651  -0.03252  -0.02412
 Alpha virt. eigenvalues --   -0.02371  -0.01829  -0.00927  -0.00310   0.00264
 Alpha virt. eigenvalues --    0.00372   0.00476   0.00719   0.00753   0.00834

  Beta  occ. eigenvalues --  -38.44325 -38.44299 -38.44196 -38.44030 -38.43501
  Beta  occ. eigenvalues --  -38.43468 -38.43252  -2.20307  -2.20274  -2.20169
  Beta  occ. eigenvalues --   -2.20063  -2.19427  -2.19395  -2.19363  -1.14200
  Beta  occ. eigenvalues --   -1.14007  -1.13992  -1.13964  -1.13937  -1.13918
  Beta  occ. eigenvalues --   -1.13856  -1.13836  -1.13794  -1.13779  -1.13655
  Beta  occ. eigenvalues --   -1.13650  -1.13235  -1.13179  -1.13125  -1.13060
  Beta  occ. eigenvalues --   -1.13030  -1.12993  -1.12971  -1.12959  -1.12938
  Beta  occ. eigenvalues --   -0.19263  -0.14465  -0.10945
  Beta virt. eigenvalues --   -0.07558  -0.05857  -0.05317  -0.03793  -0.02911
  Beta virt. eigenvalues --   -0.01773  -0.01751  -0.01519  -0.00865  -0.00045
  Beta virt. eigenvalues --    0.00294   0.00384   0.00463   0.00759   0.00815

 Mulliken charges and spin densities:
               1          2
     1  Na  -0.832898   0.016495
     2  Na  -0.226643   0.024068
     3  Na  -0.236122   0.035354
     4  Na   0.575270   0.403590
     5  Na  -0.679199   0.081971
     6  Na   0.695394   0.220772
     7  Na   0.704197   0.217750
 Sum of Mulliken charges =  -0.00000   1.00000

 Dipole moment (field-independent basis, Debye):
    X=              0.5714    Y=             -0.0063    Z=              0.0946  Tot=              0.5792
 Quadrupole moment (field-independent basis, Debye-Ang):
   XX=            -51.8670   YY=            -72.2668   ZZ=            -70.2037
   XY=             -0.0296   XZ=             -0.4768   YZ=              0.1338

 Normal termination of Gaussian 16 at Mon Nov 13 17:23:43 2023.
