 Gaussian 16, Revision B.01,
 Gaussian 16:  ES64L-G16RevB.01 20-Dec-2017

 -------------------------
 #P B3LYP/6-311+g(d) force
 -------------------------

 ------------------------------
 Gaussian input prepared by ASE
 ------------------------------
 Symbolic Z-matrix:
 Charge =  0 Multiplicity = 2

                         Standard orientation:
 ---------------------------------------------------------------------
 Center     Atomic      Atomic             Coordinates (Angstroms)
 Number     Number       Type             X           Y           Z
 ---------------------------------------------------------------------
      1         11           0        4.527983    0.095041    0.293140
      2         11           0        2.989702    2.640966   -0.114283
      3         11           0        3.194296   -2.467148   -0.517919
      4         11           0        1.554380    0.006056   -0.071961
      5         11           0       -1.417917   -0.177934    0.284249
      6         11           0       -4.320307   -0.606955    0.910949
      7         11           0       -6.528136    0.509975   -0.784175
 ---------------------------------------------------------------------

 SCF Done:  E(UB3LYP) =  -1136.09377232     A.U. after   27 cycles

 The electronic state is 2-A.
 Alpha  occ. eigenvalues --  -38.44963 -38.44694 -38.44387 -38.44159 -38.43738
 Alpha  occ. eigenvalues --  -38.43699 -38.43650  -2.20875  -2.20507  -2.20379
 Alpha  occ. eigenvalues --   -2.20032  -2.19739  -2.19625  -2.19617  -1.14615
 Alpha  occ. eigenvalues --   -1.14502  -1.14482  -1.14210  -1.14143  -1.14140
 Alpha  occ. eigenvalues --   -1.14112  -1.14027  -1.14013  -1.13771  -1.13670
 Alpha  occ. eigenvalues --   -1.13666  -1.13514  -1.13484  -1.13381  -1.13271
 Alpha  occ. eigenvalues --   -1.13241  -1.13232  -1.13230  -1.13228  -1.13171
 Alpha  occ. eigenvalues --   -0.17944  -0.14808  -0.12316  -0.11376
 Alpha virt. eigenvalues --   -0.06583  -0.04797  -0.04004  -0.03924  -0.03297
 Alpha virt. eigenvalues --   -0.02392  -0.02151  -0.01308  -0.01166  -0.00526
 Alpha virt. eigenvalues --   -0.00244   0.00010   0.00395   0.00648   0.00677

  Beta  occ. eigenvalues --  -38.44883 -38.44648 -38.44369 -38.44163 -38.43691
  Beta  occ. eigenvalues --  -38.43653 -38.43629  -2.20729  -2.20423  -2.20353
  Beta  occ. eigenvalues --   -2.20044  -2.19708  -2.19540  -2.19533  -1.14513
  Beta  occ. eigenvalues --   -1.14401  -1.14385  -1.14155  -1.14100  -1.14085
  Beta  occ. eigenvalues --   -1.14082  -1.14004  -1.13955  -1.13756  -1.13681
  Beta  occ. eigenvalues --   -1.13663  -1.13466  -1.13414  -1.13369  -1.13209
  Beta  occ. eigenvalues --   -1.13184  -1.13180  -1.13175  -1.13170  -1.13132
  Beta  occ. eigenvalues --   -0.17156  -0.14385  -0.10971
  Beta virt. eigenvalues --   -0.08609  -0.06179  -0.04490  -0.03666  -0.03518
  Beta virt. eigenvalues --   -0.03099  -0.02178  -0.01620  -0.01104  -0.00764
  Beta virt. eigenvalues --   -0.00268  -0.00161   0.00113   0.00514   0.00683

 Mulliken charges and spin densities:
               1          2
     1  Na   3.377552   0.126924
     2  Na   0.629924  -0.082663
     3  Na   0.601449   0.463369
     4  Na  -3.271153   0.153441
     5  Na  -1.700780   0.038351
     6  Na   0.252503   0.102816
     7  Na   0.110506   0.197762
 Sum of Mulliken charges =  -0.00000   1.00000

 Dipole moment (field-independent basis, Debye):
    X=              0.3104    Y=             -0.1088    Z=             -0.4623  Tot=              0.5674
 Quadrupole moment (field-independent basis, Debye-Ang):
   XX=            -56.7336   YY=            -66.9234   ZZ=            -69.2452
   XY=             -7.2312   XZ=              3.3286   YZ=             -1.5398

 Normal termination of Gaussian 16 at Mon Nov 13 15:04:27 2023.
