 Gaussian 16, Revision B.01,
 Gaussian 16:  ES64L-G16RevB.01 20-Dec-2017

 -------------------------
 #P B3LYP/6-311+g(d) force
 -------------------------

 ------------------------------
 Gaussian input prepared by ASE
 ------------------------------
 Symbolic Z-matrix:
 Charge =  0 Multiplicity = 2

                         Standard orientation:
 ---------------------------------------------------------------------
 Center     Atomic      Atomic             Coordinates (Angstroms)
 Number     Number       Type             X           Y           Z
 ---------------------------------------------------------------------
      1         11           0       -2.641196   -0.052286   -1.111579
      2         11           0       -1.160323    2.435544   -0.331960
      3         11           0        3.050040   -0.682700   -1.835720
      4         11           0        0.327710   -0.144695   -0.688383
      5         11           0        1.201490    1.813285    1.409125
      6         11           0        0.631384   -1.033345    2.164041
      7         11           0       -1.409106   -2.335803    0.394475
 ---------------------------------------------------------------------

 SCF Done:  E(UB3LYP) =  -1136.10230918     A.U. after   22 cycles

 The electronic state is 2-A.
 Alpha  occ. eigenvalues --  -38.45818 -38.43918 -38.43643 -38.43360 -38.43172
 Alpha  occ. eigenvalues --  -38.43070 -38.42999  -2.21647  -2.19902  -2.19626
 Alpha  occ. eigenvalues --   -2.19368  -2.19333  -2.19146  -2.18972  -1.15337
 Alpha  occ. eigenvalues --   -1.15244  -1.15231  -1.13675  -1.13610  -1.13498
 Alpha  occ. eigenvalues --   -1.13382  -1.13252  -1.13248  -1.13221  -1.13093
 Alpha  occ. eigenvalues --   -1.13052  -1.13005  -1.12977  -1.12901  -1.12794
 Alpha  occ. eigenvalues --   -1.12764  -1.12728  -1.12628  -1.12595  -1.12577
 Alpha  occ. eigenvalues --   -0.19422  -0.13251  -0.12536  -0.12319
 Alpha virt. eigenvalues --   -0.05286  -0.04484  -0.04404  -0.03718  -0.03034
 Alpha virt. eigenvalues --   -0.02868  -0.01265  -0.00675  -0.00476   0.00350
 Alpha virt. eigenvalues --    0.00531   0.00557   0.00738   0.00835   0.00958

  Beta  occ. eigenvalues --  -38.45696 -38.43866 -38.43613 -38.43359 -38.43167
  Beta  occ. eigenvalues --  -38.43037 -38.43000  -2.21423  -2.19807  -2.19572
  Beta  occ. eigenvalues --   -2.19338  -2.19311  -2.19139  -2.18974  -1.15176
  Beta  occ. eigenvalues --   -1.15093  -1.15082  -1.13614  -1.13540  -1.13431
  Beta  occ. eigenvalues --   -1.13350  -1.13222  -1.13199  -1.13179  -1.13085
  Beta  occ. eigenvalues --   -1.12999  -1.12982  -1.12955  -1.12885  -1.12777
  Beta  occ. eigenvalues --   -1.12750  -1.12727  -1.12627  -1.12586  -1.12579
  Beta  occ. eigenvalues --   -0.18820  -0.12712  -0.12222
  Beta virt. eigenvalues --   -0.08370  -0.04798  -0.04360  -0.04217  -0.03340
  Beta virt. eigenvalues --   -0.02395  -0.02176  -0.00880  -0.00585  -0.00248
  Beta virt. eigenvalues --    0.00412   0.00601   0.00646   0.00886   0.00972

 Mulliken charges and spin densities:
               1          2
     1  Na   1.277066  -0.330154
     2  Na   0.127130  -0.047613
     3  Na   0.167467   0.509568
     4  Na  -1.907472   0.186541
     5  Na   0.274562   0.262353
     6  Na  -0.049010   0.157669
     7  Na   0.110256   0.261637
 Sum of Mulliken charges =  -0.00000   1.00000

 Dipole moment (field-independent basis, Debye):
    X=              0.8352    Y=             -0.1855    Z=             -0.0066  Tot=              0.8556
 Quadrupole moment (field-independent basis, Debye-Ang):
   XX=            -60.1031   YY=            -68.4339   ZZ=            -65.5122
   XY=             -0.0392   XZ=             -2.1390   YZ=              1.6359

 Normal termination of Gaussian 16 at Mon Nov 13 20:16:04 2023.
