 Gaussian 16, Revision B.01,
 Gaussian 16:  ES64L-G16RevB.01 20-Dec-2017

 -------------------------
 #P B3LYP/6-311+g(d) force
 -------------------------

 ------------------------------
 Gaussian input prepared by ASE
 ------------------------------
 Symbolic Z-matrix:
 Charge =  0 Multiplicity = 2

                         Standard orientation:
 ---------------------------------------------------------------------
 Center     Atomic      Atomic             Coordinates (Angstroms)
 Number     Number       Type             X           Y           Z
 ---------------------------------------------------------------------
      1         11           0       -1.556825   -1.641668   -1.113032
      2         11           0       -2.845714   -0.704999    1.432378
      3         11           0       -3.440113    0.692970   -1.146520
      4         11           0       -1.419697    1.845460    0.749471
      5         11           0        0.770874    0.040162   -0.234389
      6         11           0        3.317121   -0.867403    1.061250
      7         11           0        5.174354    0.635478   -0.749158
 ---------------------------------------------------------------------

 SCF Done:  E(UB3LYP) =  -1136.08349552     A.U. after   30 cycles

 The electronic state is 2-A.
 Alpha  occ. eigenvalues --  -38.46294 -38.44929 -38.44409 -38.44075 -38.43658
 Alpha  occ. eigenvalues --  -38.43085 -38.42702  -2.22273  -2.20923  -2.20285
 Alpha  occ. eigenvalues --   -2.19897  -2.19683  -2.19104  -2.18720  -1.15995
 Alpha  occ. eigenvalues --   -1.15963  -1.15864  -1.14623  -1.14588  -1.14535
 Alpha  occ. eigenvalues --   -1.13996  -1.13985  -1.13918  -1.13539  -1.13535
 Alpha  occ. eigenvalues --   -1.13515  -1.13360  -1.13350  -1.13296  -1.12808
 Alpha  occ. eigenvalues --   -1.12753  -1.12719  -1.12401  -1.12387  -1.12307
 Alpha  occ. eigenvalues --   -0.19315  -0.14685  -0.11599  -0.10446
 Alpha virt. eigenvalues --   -0.07709  -0.05548  -0.03731  -0.03477  -0.02934
 Alpha virt. eigenvalues --   -0.02003  -0.01708  -0.01468  -0.01161  -0.00494
 Alpha virt. eigenvalues --   -0.00372   0.00122   0.00219   0.00489   0.00667

  Beta  occ. eigenvalues --  -38.46273 -38.44897 -38.44410 -38.44037 -38.43582
  Beta  occ. eigenvalues --  -38.43041 -38.42673  -2.22240  -2.20869  -2.20291
  Beta  occ. eigenvalues --   -2.19825  -2.19545  -2.19026  -2.18671  -1.15976
  Beta  occ. eigenvalues --   -1.15885  -1.15853  -1.14596  -1.14524  -1.14485
  Beta  occ. eigenvalues --   -1.13997  -1.13966  -1.13925  -1.13488  -1.13486
  Beta  occ. eigenvalues --   -1.13473  -1.13267  -1.13257  -1.13183  -1.12768
  Beta  occ. eigenvalues --   -1.12679  -1.12660  -1.12368  -1.12359  -1.12244
  Beta  occ. eigenvalues --   -0.18520  -0.14266  -0.10276
  Beta virt. eigenvalues --   -0.07634  -0.07468  -0.05254  -0.03442  -0.03074
  Beta virt. eigenvalues --   -0.02592  -0.01674  -0.01360  -0.01212  -0.00691
  Beta virt. eigenvalues --   -0.00303  -0.00207   0.00207   0.00261   0.00526

 Mulliken charges and spin densities:
               1          2
     1  Na   0.397694   0.398060
     2  Na   0.594995   0.186646
     3  Na   0.530201   0.087586
     4  Na   0.270737   0.346653
     5  Na  -2.633077  -0.236450
     6  Na   0.841381   0.043587
     7  Na  -0.001931   0.173917
 Sum of Mulliken charges =  -0.00000   1.00000

 Dipole moment (field-independent basis, Debye):
    X=             -0.3584    Y=             -0.3956    Z=              0.2362  Tot=              0.5837
 Quadrupole moment (field-independent basis, Debye-Ang):
   XX=            -71.0906   YY=            -73.8935   ZZ=            -59.8349
   XY=              6.0063   XZ=             -0.4775   YZ=            -11.0885

 Normal termination of Gaussian 16 at Mon Nov 13 15:34:12 2023.
