 Gaussian 16, Revision B.01,
 Gaussian 16:  ES64L-G16RevB.01 20-Dec-2017

 -------------------------
 #P B3LYP/6-311+g(d) force
 -------------------------

 ------------------------------
 Gaussian input prepared by ASE
 ------------------------------
 Symbolic Z-matrix:
 Charge =  0 Multiplicity = 2

                         Standard orientation:
 ---------------------------------------------------------------------
 Center     Atomic      Atomic             Coordinates (Angstroms)
 Number     Number       Type             X           Y           Z
 ---------------------------------------------------------------------
      1         11           0        1.225590    2.117638   -0.896227
      2         11           0       -0.454875    2.464808    1.563323
      3         11           0        4.148243   -1.449595    0.705423
      4         11           0        1.945261   -0.774385   -1.215942
      5         11           0       -0.741358   -0.004910   -0.118125
      6         11           0       -3.623608   -0.142043   -0.947127
      7         11           0       -2.499252   -2.211513    0.908676
 ---------------------------------------------------------------------

 SCF Done:  E(UB3LYP) =  -1136.09606602     A.U. after   27 cycles

 The electronic state is 2-A.
 Alpha  occ. eigenvalues --  -38.45982 -38.45235 -38.43728 -38.43655 -38.43509
 Alpha  occ. eigenvalues --  -38.42898 -38.42875  -2.21852  -2.21117  -2.19724
 Alpha  occ. eigenvalues --   -2.19697  -2.19475  -2.18859  -2.18819  -1.15564
 Alpha  occ. eigenvalues --   -1.15513  -1.15472  -1.14828  -1.14744  -1.14730
 Alpha  occ. eigenvalues --   -1.13559  -1.13434  -1.13394  -1.13377  -1.13335
 Alpha  occ. eigenvalues --   -1.13257  -1.13170  -1.13109  -1.13105  -1.12546
 Alpha  occ. eigenvalues --   -1.12507  -1.12487  -1.12464  -1.12447  -1.12424
 Alpha  occ. eigenvalues --   -0.18433  -0.14431  -0.12073  -0.09967
 Alpha virt. eigenvalues --   -0.06980  -0.05579  -0.03689  -0.03364  -0.03300
 Alpha virt. eigenvalues --   -0.02172  -0.01537  -0.01295  -0.00620  -0.00449
 Alpha virt. eigenvalues --    0.00008   0.00197   0.00491   0.00524   0.00706

  Beta  occ. eigenvalues --  -38.45975 -38.45228 -38.43704 -38.43607 -38.43477
  Beta  occ. eigenvalues --  -38.42850 -38.42848  -2.21842  -2.21104  -2.19685
  Beta  occ. eigenvalues --   -2.19652  -2.19385  -2.18819  -2.18727  -1.15558
  Beta  occ. eigenvalues --   -1.15504  -1.15456  -1.14820  -1.14737  -1.14712
  Beta  occ. eigenvalues --   -1.13527  -1.13408  -1.13354  -1.13307  -1.13269
  Beta  occ. eigenvalues --   -1.13221  -1.13114  -1.13046  -1.13042  -1.12517
  Beta  occ. eigenvalues --   -1.12484  -1.12428  -1.12389  -1.12383  -1.12361
  Beta  occ. eigenvalues --   -0.17834  -0.14153  -0.11694
  Beta virt. eigenvalues --   -0.06757  -0.06392  -0.05405  -0.03339  -0.03078
  Beta virt. eigenvalues --   -0.02895  -0.02021  -0.01239  -0.00966  -0.00374
  Beta virt. eigenvalues --   -0.00223   0.00091   0.00316   0.00567   0.00673

 Mulliken charges and spin densities:
               1          2
     1  Na   0.377461   0.167369
     2  Na   0.874750   0.084959
     3  Na   0.396616   0.348722
     4  Na  -0.000710  -0.184207
     5  Na  -3.374246   0.877588
     6  Na   0.184287  -0.214499
     7  Na   1.541842  -0.079932
 Sum of Mulliken charges =  -0.00000   1.00000

 Dipole moment (field-independent basis, Debye):
    X=             -2.6245    Y=             -0.0654    Z=             -0.1502  Tot=              2.6296
 Quadrupole moment (field-independent basis, Debye-Ang):
   XX=            -56.1810   YY=            -67.1134   ZZ=            -70.8910
   XY=              4.7157   XZ=              3.4949   YZ=             -5.7696

 Normal termination of Gaussian 16 at Mon Nov 13 17:27:23 2023.
