 Gaussian 16, Revision B.01,
 Gaussian 16:  ES64L-G16RevB.01 20-Dec-2017

 -------------------------
 #P B3LYP/6-311+g(d) force
 -------------------------

 ------------------------------
 Gaussian input prepared by ASE
 ------------------------------
 Symbolic Z-matrix:
 Charge =  0 Multiplicity = 2

                         Standard orientation:
 ---------------------------------------------------------------------
 Center     Atomic      Atomic             Coordinates (Angstroms)
 Number     Number       Type             X           Y           Z
 ---------------------------------------------------------------------
      1         11           0        0.172037    1.937997   -0.035914
      2         11           0        0.048749    0.622868    2.658512
      3         11           0       -2.609046    1.525544   -1.077857
      4         11           0       -2.828715   -1.456389   -0.875597
      5         11           0       -0.555526   -1.835812    1.044928
      6         11           0        1.413020   -0.658155   -0.896171
      7         11           0        4.359482   -0.136053   -0.817900
 ---------------------------------------------------------------------

 SCF Done:  E(UB3LYP) =  -1136.09800166     A.U. after   30 cycles

 The electronic state is 2-A.
 Alpha  occ. eigenvalues --  -38.46130 -38.45491 -38.44351 -38.44182 -38.43534
 Alpha  occ. eigenvalues --  -38.43173 -38.42742  -2.22048  -2.21293  -2.20250
 Alpha  occ. eigenvalues --   -2.20153  -2.19429  -2.19147  -2.18726  -1.15719
 Alpha  occ. eigenvalues --   -1.15688  -1.15630  -1.14988  -1.14925  -1.14913
 Alpha  occ. eigenvalues --   -1.13941  -1.13919  -1.13885  -1.13879  -1.13820
 Alpha  occ. eigenvalues --   -1.13768  -1.13146  -1.13090  -1.13058  -1.12839
 Alpha  occ. eigenvalues --   -1.12824  -1.12715  -1.12412  -1.12401  -1.12346
 Alpha  occ. eigenvalues --   -0.18990  -0.13742  -0.12679  -0.11375
 Alpha virt. eigenvalues --   -0.06925  -0.04502  -0.04134  -0.03443  -0.03122
 Alpha virt. eigenvalues --   -0.02892  -0.02504  -0.00888  -0.00636   0.00028
 Alpha virt. eigenvalues --    0.00042   0.00414   0.00677   0.00802   0.00868

  Beta  occ. eigenvalues --  -38.46003 -38.45450 -38.44317 -38.44172 -38.43520
  Beta  occ. eigenvalues --  -38.43160 -38.42727  -2.21818  -2.21219  -2.20188
  Beta  occ. eigenvalues --   -2.20136  -2.19405  -2.19127  -2.18704  -1.15562
  Beta  occ. eigenvalues --   -1.15516  -1.15477  -1.14933  -1.14875  -1.14865
  Beta  occ. eigenvalues --   -1.13895  -1.13880  -1.13862  -1.13836  -1.13806
  Beta  occ. eigenvalues --   -1.13758  -1.13133  -1.13066  -1.13039  -1.12818
  Beta  occ. eigenvalues --   -1.12782  -1.12713  -1.12395  -1.12353  -1.12335
  Beta  occ. eigenvalues --   -0.18287  -0.13065  -0.11248
  Beta virt. eigenvalues --   -0.08939  -0.06405  -0.04153  -0.03645  -0.03162
  Beta virt. eigenvalues --   -0.02658  -0.02333  -0.02195  -0.00599  -0.00536
  Beta virt. eigenvalues --    0.00095   0.00217   0.00432   0.00769   0.00859

 Mulliken charges and spin densities:
               1          2
     1  Na  -0.209017   0.019555
     2  Na   0.380764   0.373926
     3  Na  -0.291717   0.063060
     4  Na   0.959976   0.217610
     5  Na  -0.322969  -0.140264
     6  Na  -0.940050   0.342869
     7  Na   0.423012   0.123244
 Sum of Mulliken charges =  -0.00000   1.00000

 Dipole moment (field-independent basis, Debye):
    X=              1.1126    Y=              0.1235    Z=              0.7188  Tot=              1.3304
 Quadrupole moment (field-independent basis, Debye-Ang):
   XX=            -51.3952   YY=            -78.9974   ZZ=            -63.7001
   XY=              1.7004   XZ=              1.5260   YZ=              4.4094

 Normal termination of Gaussian 16 at Mon Nov 13 15:22:16 2023.
