 Gaussian 16, Revision B.01,
 Gaussian 16:  ES64L-G16RevB.01 20-Dec-2017

 -------------------------
 #P B3LYP/6-311+g(d) force
 -------------------------

 ------------------------------
 Gaussian input prepared by ASE
 ------------------------------
 Symbolic Z-matrix:
 Charge =  0 Multiplicity = 2

                         Standard orientation:
 ---------------------------------------------------------------------
 Center     Atomic      Atomic             Coordinates (Angstroms)
 Number     Number       Type             X           Y           Z
 ---------------------------------------------------------------------
      1         11           0       -1.326595    1.303790   -0.580375
      2         11           0       -0.504585   -1.308848   -1.797726
      3         11           0       -2.954481   -1.161812   -0.070007
      4         11           0       -1.372762    0.083848    2.155512
      5         11           0        1.314206    2.722718   -0.481790
      6         11           0        1.096514   -0.120175    0.450310
      7         11           0        3.747703   -1.519521    0.324076
 ---------------------------------------------------------------------

 SCF Done:  E(UB3LYP) =  -1136.09667564     A.U. after   29 cycles

 The electronic state is 2-A.
 Alpha  occ. eigenvalues --  -38.44996 -38.44611 -38.44282 -38.44072 -38.43580
 Alpha  occ. eigenvalues --  -38.43210 -38.42799  -2.20993  -2.20593  -2.20274
 Alpha  occ. eigenvalues --   -2.19869  -2.19475  -2.19406  -2.18969  -1.14701
 Alpha  occ. eigenvalues --   -1.14653  -1.14575  -1.14350  -1.14251  -1.14203
 Alpha  occ. eigenvalues --   -1.13960  -1.13914  -1.13877  -1.13579  -1.13511
 Alpha  occ. eigenvalues --   -1.13499  -1.13271  -1.13162  -1.13128  -1.13094
 Alpha  occ. eigenvalues --   -1.13058  -1.12932  -1.12667  -1.12643  -1.12528
 Alpha  occ. eigenvalues --   -0.20013  -0.13595  -0.12183  -0.11590
 Alpha virt. eigenvalues --   -0.06387  -0.04986  -0.03814  -0.03578  -0.02772
 Alpha virt. eigenvalues --   -0.02388  -0.01820  -0.01088  -0.00351   0.00107
 Alpha virt. eigenvalues --    0.00248   0.00353   0.00631   0.00746   0.00916

  Beta  occ. eigenvalues --  -38.44896 -38.44541 -38.44270 -38.44069 -38.43576
  Beta  occ. eigenvalues --  -38.43177 -38.42778  -2.20808  -2.20467  -2.20258
  Beta  occ. eigenvalues --   -2.19862  -2.19470  -2.19355  -2.18936  -1.14585
  Beta  occ. eigenvalues --   -1.14521  -1.14447  -1.14270  -1.14169  -1.14101
  Beta  occ. eigenvalues --   -1.13954  -1.13877  -1.13832  -1.13573  -1.13507
  Beta  occ. eigenvalues --   -1.13496  -1.13257  -1.13154  -1.13108  -1.13082
  Beta  occ. eigenvalues --   -1.12960  -1.12909  -1.12638  -1.12583  -1.12513
  Beta  occ. eigenvalues --   -0.19153  -0.13316  -0.11449
  Beta virt. eigenvalues --   -0.08022  -0.06145  -0.04834  -0.03187  -0.02930
  Beta virt. eigenvalues --   -0.02427  -0.01719  -0.01640  -0.01017  -0.00097
  Beta virt. eigenvalues --    0.00167   0.00252   0.00574   0.00726   0.00783

 Mulliken charges and spin densities:
               1          2
     1  Na   1.503149   0.600892
     2  Na  -0.359865   0.184523
     3  Na   0.672648   0.042155
     4  Na   1.766600   0.223242
     5  Na  -0.061030  -0.038412
     6  Na  -2.915740   0.122571
     7  Na  -0.605762  -0.134970
 Sum of Mulliken charges =  -0.00000   1.00000

 Dipole moment (field-independent basis, Debye):
    X=             -0.4556    Y=              0.0057    Z=              0.0038  Tot=              0.4556
 Quadrupole moment (field-independent basis, Debye-Ang):
   XX=            -56.1477   YY=            -70.4394   ZZ=            -67.0107
   XY=              3.4594   XZ=             -1.1581   YZ=             -0.4067

 Normal termination of Gaussian 16 at Mon Nov 13 18:41:17 2023.
