 Gaussian 16, Revision B.01,
 Gaussian 16:  ES64L-G16RevB.01 20-Dec-2017

 -------------------------
 #P B3LYP/6-311+g(d) force
 -------------------------

 ------------------------------
 Gaussian input prepared by ASE
 ------------------------------
 Symbolic Z-matrix:
 Charge =  0 Multiplicity = 2

                         Standard orientation:
 ---------------------------------------------------------------------
 Center     Atomic      Atomic             Coordinates (Angstroms)
 Number     Number       Type             X           Y           Z
 ---------------------------------------------------------------------
      1         11           0        0.875638    1.448840   -0.268754
      2         11           0       -3.509041    1.493094    0.826191
      3         11           0       -4.321096   -1.220265   -0.156626
      4         11           0       -1.609855   -0.131175   -0.833118
      5         11           0        0.847684   -1.516915    0.179459
      6         11           0        3.839191   -1.509085    0.419531
      7         11           0        3.877480    1.435506   -0.166683
 ---------------------------------------------------------------------

 SCF Done:  E(UB3LYP) =  -1136.09587939     A.U. after   25 cycles

 The electronic state is 2-A.
 Alpha  occ. eigenvalues --  -38.45651 -38.44332 -38.43688 -38.43527 -38.43451
 Alpha  occ. eigenvalues --  -38.43129 -38.42990  -2.21536  -2.20229  -2.19598
 Alpha  occ. eigenvalues --   -2.19546  -2.19355  -2.19246  -2.19015  -1.15247
 Alpha  occ. eigenvalues --   -1.15184  -1.15153  -1.13947  -1.13867  -1.13848
 Alpha  occ. eigenvalues --   -1.13337  -1.13309  -1.13295  -1.13238  -1.13226
 Alpha  occ. eigenvalues --   -1.13176  -1.13001  -1.12983  -1.12970  -1.12944
 Alpha  occ. eigenvalues --   -1.12893  -1.12853  -1.12653  -1.12644  -1.12607
 Alpha  occ. eigenvalues --   -0.18203  -0.15515  -0.11385  -0.10860
 Alpha virt. eigenvalues --   -0.07064  -0.05104  -0.04198  -0.03575  -0.03059
 Alpha virt. eigenvalues --   -0.02522  -0.01658  -0.01005  -0.00589  -0.00295
 Alpha virt. eigenvalues --    0.00097   0.00127   0.00259   0.00543   0.00696

  Beta  occ. eigenvalues --  -38.45640 -38.44331 -38.43644 -38.43459 -38.43424
  Beta  occ. eigenvalues --  -38.43119 -38.42941  -2.21515  -2.20227  -2.19518
  Beta  occ. eigenvalues --   -2.19424  -2.19307  -2.19232  -2.18928  -1.15235
  Beta  occ. eigenvalues --   -1.15168  -1.15136  -1.13946  -1.13865  -1.13844
  Beta  occ. eigenvalues --   -1.13265  -1.13240  -1.13228  -1.13174  -1.13160
  Beta  occ. eigenvalues --   -1.13095  -1.12955  -1.12951  -1.12936  -1.12904
  Beta  occ. eigenvalues --   -1.12887  -1.12815  -1.12594  -1.12587  -1.12534
  Beta  occ. eigenvalues --   -0.17669  -0.15133  -0.10788
  Beta virt. eigenvalues --   -0.07676  -0.06285  -0.04904  -0.04012  -0.03239
  Beta virt. eigenvalues --   -0.02376  -0.02147  -0.01280  -0.00918  -0.00446
  Beta virt. eigenvalues --   -0.00065   0.00191   0.00254   0.00486   0.00585

 Mulliken charges and spin densities:
               1          2
     1  Na  -0.522742   0.426341
     2  Na   0.155206   0.044264
     3  Na   0.654482  -0.041964
     4  Na  -0.603306   0.258037
     5  Na  -0.630932   0.124509
     6  Na   0.517279   0.125835
     7  Na   0.430013   0.062978
 Sum of Mulliken charges =  -0.00000   1.00000

 Dipole moment (field-independent basis, Debye):
    X=             -1.7657    Y=              0.2981    Z=              0.3545  Tot=              1.8254
 Quadrupole moment (field-independent basis, Debye-Ang):
   XX=            -73.0818   YY=            -62.0543   ZZ=            -69.1090
   XY=              0.2589   XZ=             -0.9842   YZ=              3.0150

 Normal termination of Gaussian 16 at Mon Nov 13 15:36:55 2023.
