 Gaussian 16, Revision B.01,
 Gaussian 16:  ES64L-G16RevB.01 20-Dec-2017

 -------------------------
 #P B3LYP/6-311+g(d) force
 -------------------------

 ------------------------------
 Gaussian input prepared by ASE
 ------------------------------
 Symbolic Z-matrix:
 Charge =  0 Multiplicity = 2

                         Standard orientation:
 ---------------------------------------------------------------------
 Center     Atomic      Atomic             Coordinates (Angstroms)
 Number     Number       Type             X           Y           Z
 ---------------------------------------------------------------------
      1         11           0       -0.128444   -1.078815   -1.290804
      2         11           0        0.967003    1.720706   -1.353545
      3         11           0        2.463718   -1.881742   -0.016382
      4         11           0        1.903320    0.739240    1.327087
      5         11           0       -1.574173    2.608740   -0.032226
      6         11           0       -1.015800    0.011949    1.362306
      7         11           0       -2.615623   -2.120078    0.003564
 ---------------------------------------------------------------------

 SCF Done:  E(UB3LYP) =  -1136.11139530     A.U. after   17 cycles

 The electronic state is 2-A.
 Alpha  occ. eigenvalues --  -38.44138 -38.44090 -38.43829 -38.43744 -38.43680
 Alpha  occ. eigenvalues --  -38.43301 -38.43248  -2.20031  -2.19983  -2.19844
 Alpha  occ. eigenvalues --   -2.19760  -2.19570  -2.19412  -2.19355  -1.13769
 Alpha  occ. eigenvalues --   -1.13750  -1.13719  -1.13703  -1.13644  -1.13604
 Alpha  occ. eigenvalues --   -1.13587  -1.13568  -1.13489  -1.13398  -1.13372
 Alpha  occ. eigenvalues --   -1.13328  -1.13314  -1.13269  -1.13179  -1.13164
 Alpha  occ. eigenvalues --   -1.13023  -1.12986  -1.12968  -1.12947  -1.12918
 Alpha  occ. eigenvalues --   -0.19765  -0.13058  -0.12821  -0.11453
 Alpha virt. eigenvalues --   -0.05521  -0.05232  -0.03694  -0.03319  -0.03192
 Alpha virt. eigenvalues --   -0.02680  -0.01471  -0.01117  -0.00161   0.00313
 Alpha virt. eigenvalues --    0.00373   0.00600   0.00765   0.00779   0.01085

  Beta  occ. eigenvalues --  -38.44135 -38.44087 -38.43777 -38.43692 -38.43680
  Beta  occ. eigenvalues --  -38.43246 -38.43195  -2.20029  -2.19981  -2.19752
  Beta  occ. eigenvalues --   -2.19668  -2.19571  -2.19313  -2.19261  -1.13761
  Beta  occ. eigenvalues --   -1.13730  -1.13713  -1.13679  -1.13635  -1.13587
  Beta  occ. eigenvalues --   -1.13543  -1.13480  -1.13410  -1.13356  -1.13339
  Beta  occ. eigenvalues --   -1.13259  -1.13255  -1.13250  -1.13180  -1.13107
  Beta  occ. eigenvalues --   -1.12950  -1.12926  -1.12893  -1.12888  -1.12840
  Beta  occ. eigenvalues --   -0.19005  -0.12857  -0.12611
  Beta virt. eigenvalues --   -0.07294  -0.05491  -0.05103  -0.03557  -0.02722
  Beta virt. eigenvalues --   -0.02468  -0.01611  -0.01440  -0.00977   0.00073
  Beta virt. eigenvalues --    0.00352   0.00365   0.00611   0.00779   0.00910

 Mulliken charges and spin densities:
               1          2
     1  Na  -0.436469   0.214746
     2  Na   0.152749   0.310309
     3  Na  -0.015348  -0.003264
     4  Na   0.228084   0.291349
     5  Na   0.012604  -0.026737
     6  Na  -0.464337   0.200081
     7  Na   0.522717   0.013516
 Sum of Mulliken charges =  -0.00000   1.00000

 Dipole moment (field-independent basis, Debye):
    X=              0.0007    Y=              0.0211    Z=             -0.0079  Tot=              0.0225
 Quadrupole moment (field-independent basis, Debye-Ang):
   XX=            -60.1367   YY=            -62.0623   ZZ=            -71.4224
   XY=             -1.7056   XZ=              0.1915   YZ=             -0.0650

 Normal termination of Gaussian 16 at Mon Nov 13 18:45:33 2023.
