 Gaussian 16, Revision B.01,
 Gaussian 16:  ES64L-G16RevB.01 20-Dec-2017

 -------------------------
 #P B3LYP/6-311+g(d) force
 -------------------------

 ------------------------------
 Gaussian input prepared by ASE
 ------------------------------
 Symbolic Z-matrix:
 Charge =  0 Multiplicity = 2

                         Standard orientation:
 ---------------------------------------------------------------------
 Center     Atomic      Atomic             Coordinates (Angstroms)
 Number     Number       Type             X           Y           Z
 ---------------------------------------------------------------------
      1         11           0        0.006997   -0.000471   -1.244655
      2         11           0       -1.264182   -1.850386    0.762216
      3         11           0       -2.956160   -0.001966   -0.864202
      4         11           0       -1.265525    1.850927    0.761442
      5         11           0        2.246294    1.860416   -0.473094
      6         11           0        0.983425    0.001252    1.529843
      7         11           0        2.249153   -1.859772   -0.471548
 ---------------------------------------------------------------------

 SCF Done:  E(UB3LYP) =  -1136.10949620     A.U. after   20 cycles

 The electronic state is 2-A.
 Alpha  occ. eigenvalues --  -38.44140 -38.43619 -38.43619 -38.43205 -38.43190
 Alpha  occ. eigenvalues --  -38.43188 -38.43101  -2.20129  -2.19552  -2.19549
 Alpha  occ. eigenvalues --   -2.19421  -2.19388  -2.19212  -2.19206  -1.13874
 Alpha  occ. eigenvalues --   -1.13781  -1.13772  -1.13433  -1.13325  -1.13303
 Alpha  occ. eigenvalues --   -1.13269  -1.13257  -1.13139  -1.13126  -1.13070
 Alpha  occ. eigenvalues --   -1.13053  -1.13018  -1.13002  -1.12941  -1.12849
 Alpha  occ. eigenvalues --   -1.12841  -1.12834  -1.12824  -1.12785  -1.12766
 Alpha  occ. eigenvalues --   -0.20356  -0.14076  -0.12070  -0.11357
 Alpha virt. eigenvalues --   -0.05521  -0.04960  -0.03834  -0.03370  -0.02578
 Alpha virt. eigenvalues --   -0.02228  -0.01561  -0.00888  -0.00297   0.00341
 Alpha virt. eigenvalues --    0.00505   0.00531   0.00850   0.00924   0.01035

  Beta  occ. eigenvalues --  -38.44116 -38.43609 -38.43608 -38.43165 -38.43163
  Beta  occ. eigenvalues --  -38.43133 -38.43047  -2.20088  -2.19535  -2.19532
  Beta  occ. eigenvalues --   -2.19314  -2.19274  -2.19172  -2.19165  -1.13846
  Beta  occ. eigenvalues --   -1.13756  -1.13726  -1.13392  -1.13305  -1.13240
  Beta  occ. eigenvalues --   -1.13232  -1.13224  -1.13123  -1.13109  -1.13014
  Beta  occ. eigenvalues --   -1.12988  -1.12955  -1.12927  -1.12857  -1.12806
  Beta  occ. eigenvalues --   -1.12800  -1.12774  -1.12750  -1.12749  -1.12736
  Beta  occ. eigenvalues --   -0.19573  -0.13782  -0.11826
  Beta virt. eigenvalues --   -0.07208  -0.05413  -0.04938  -0.03528  -0.02897
  Beta virt. eigenvalues --   -0.01877  -0.01457  -0.01166  -0.00867  -0.00040
  Beta virt. eigenvalues --    0.00372   0.00507   0.00532   0.00910   0.00918

 Mulliken charges and spin densities:
               1          2
     1  Na  -1.052974   0.319409
     2  Na  -0.146505   0.120728
     3  Na   0.819801   0.047353
     4  Na  -0.146290   0.120661
     5  Na   0.164583   0.038877
     6  Na   0.197454   0.314385
     7  Na   0.163931   0.038587
 Sum of Mulliken charges =  -0.00000   1.00000

 Dipole moment (field-independent basis, Debye):
    X=              0.1127    Y=             -0.0000    Z=             -0.0738  Tot=              0.1347
 Quadrupole moment (field-independent basis, Debye-Ang):
   XX=            -53.4457   YY=            -68.0891   ZZ=            -70.7026
   XY=             -0.0045   XZ=             -0.8220   YZ=             -0.0015

 Normal termination of Gaussian 16 at Mon Nov 13 18:42:50 2023.
