 Gaussian 16, Revision B.01,
 Gaussian 16:  ES64L-G16RevB.01 20-Dec-2017

 -------------------------
 #P B3LYP/6-311+g(d) force
 -------------------------

 ------------------------------
 Gaussian input prepared by ASE
 ------------------------------
 Symbolic Z-matrix:
 Charge =  0 Multiplicity = 2

                         Standard orientation:
 ---------------------------------------------------------------------
 Center     Atomic      Atomic             Coordinates (Angstroms)
 Number     Number       Type             X           Y           Z
 ---------------------------------------------------------------------
      1         11           0       -0.004209   -0.006836    1.822622
      2         11           0        0.032444    0.007582   -1.812799
      3         11           0        2.480476   -0.004193   -0.011382
      4         11           0        0.634252    2.001055    0.033281
      5         11           0        0.626836   -2.002726    0.005522
      6         11           0       -1.882561    1.280562   -0.030080
      7         11           0       -1.887237   -1.275446   -0.007165
 ---------------------------------------------------------------------

 SCF Done:  E(UB3LYP) =  -1136.04638812     A.U. after   19 cycles

 The electronic state is 2-A.
 Alpha  occ. eigenvalues --  -38.44694 -38.44670 -38.44298 -38.44295 -38.44010
 Alpha  occ. eigenvalues --  -38.43930 -38.43929  -2.21006  -2.20986  -2.20612
 Alpha  occ. eigenvalues --   -2.20488  -2.20220  -2.20190  -2.20123  -1.15003
 Alpha  occ. eigenvalues --   -1.14809  -1.14798  -1.14753  -1.14741  -1.14682
 Alpha  occ. eigenvalues --   -1.14643  -1.14418  -1.14345  -1.14117  -1.14075
 Alpha  occ. eigenvalues --   -1.14062  -1.14024  -1.13818  -1.13794  -1.13737
 Alpha  occ. eigenvalues --   -1.13716  -1.13700  -1.13685  -1.13562  -1.13471
 Alpha  occ. eigenvalues --   -0.22513  -0.13955  -0.13201  -0.12919
 Alpha virt. eigenvalues --   -0.05150  -0.04075  -0.04057  -0.03881  -0.03494
 Alpha virt. eigenvalues --   -0.03042  -0.00819  -0.00372  -0.00158   0.00317
 Alpha virt. eigenvalues --    0.00938   0.01044   0.01115   0.01290   0.01321

  Beta  occ. eigenvalues --  -38.44591 -38.44567 -38.44281 -38.44278 -38.43999
  Beta  occ. eigenvalues --  -38.43911 -38.43910  -2.20822  -2.20802  -2.20589
  Beta  occ. eigenvalues --   -2.20467  -2.20199  -2.20166  -2.20105  -1.14936
  Beta  occ. eigenvalues --   -1.14774  -1.14711  -1.14641  -1.14607  -1.14596
  Beta  occ. eigenvalues --   -1.14507  -1.14386  -1.14282  -1.14060  -1.14041
  Beta  occ. eigenvalues --   -1.14028  -1.13938  -1.13811  -1.13713  -1.13690
  Beta  occ. eigenvalues --   -1.13676  -1.13643  -1.13643  -1.13556  -1.13465
  Beta  occ. eigenvalues --   -0.21631  -0.13533  -0.12785
  Beta virt. eigenvalues --   -0.08628  -0.05190  -0.04039  -0.04019  -0.02857
  Beta virt. eigenvalues --   -0.02503  -0.02002  -0.00753  -0.00331  -0.00002
  Beta virt. eigenvalues --    0.00334   0.00940   0.01019   0.01154   0.01278

 Mulliken charges and spin densities:
               1          2
     1  Na  -0.221487   0.444937
     2  Na  -0.212650   0.445549
     3  Na  -0.082071  -0.043185
     4  Na   0.193113   0.057229
     5  Na   0.189340   0.056779
     6  Na   0.068209   0.019561
     7  Na   0.065547   0.019130
 Sum of Mulliken charges =  -0.00000   1.00000

 Dipole moment (field-independent basis, Debye):
    X=              0.2044    Y=              0.0005    Z=              0.0088  Tot=              0.2046
 Quadrupole moment (field-independent basis, Debye-Ang):
   XX=            -63.3360   YY=            -70.4469   ZZ=            -66.5116
   XY=             -0.0018   XZ=              0.0515   YZ=              0.0140

 Normal termination of Gaussian 16 at Mon Nov 13 20:47:19 2023.
