 Gaussian 16, Revision B.01,
 Gaussian 16:  ES64L-G16RevB.01 20-Dec-2017

 -------------------------
 #P B3LYP/6-311+g(d) force
 -------------------------

 ------------------------------
 Gaussian input prepared by ASE
 ------------------------------
 Symbolic Z-matrix:
 Charge =  0 Multiplicity = 2

                         Standard orientation:
 ---------------------------------------------------------------------
 Center     Atomic      Atomic             Coordinates (Angstroms)
 Number     Number       Type             X           Y           Z
 ---------------------------------------------------------------------
      1         11           0       -0.055759    0.499532    1.648052
      2         11           0        2.085540   -1.532043    1.108964
      3         11           0       -3.540607   -1.413120   -0.508909
      4         11           0       -0.567160   -1.728730   -0.283028
      5         11           0        3.125617    0.243324   -1.078289
      6         11           0        0.223413    0.987117   -1.298194
      7         11           0       -1.271043    2.943920    0.411404
 ---------------------------------------------------------------------

 SCF Done:  E(UB3LYP) =  -1136.10396215     A.U. after   22 cycles

 The electronic state is 2-A.
 Alpha  occ. eigenvalues --  -38.44650 -38.44366 -38.43963 -38.43849 -38.43786
 Alpha  occ. eigenvalues --  -38.43339 -38.43176  -2.20558  -2.20168  -2.19972
 Alpha  occ. eigenvalues --   -2.19946  -2.19867  -2.19237  -2.19232  -1.14270
 Alpha  occ. eigenvalues --   -1.14234  -1.14168  -1.13871  -1.13824  -1.13815
 Alpha  occ. eigenvalues --   -1.13798  -1.13749  -1.13636  -1.13582  -1.13566
 Alpha  occ. eigenvalues --   -1.13558  -1.13506  -1.13480  -1.13446  -1.12921
 Alpha  occ. eigenvalues --   -1.12900  -1.12890  -1.12880  -1.12843  -1.12821
 Alpha  occ. eigenvalues --   -0.19624  -0.13425  -0.12379  -0.11515
 Alpha virt. eigenvalues --   -0.06364  -0.04913  -0.03772  -0.03450  -0.02983
 Alpha virt. eigenvalues --   -0.02292  -0.02136  -0.01037  -0.00417   0.00139
 Alpha virt. eigenvalues --    0.00281   0.00412   0.00721   0.00749   0.00915

  Beta  occ. eigenvalues --  -38.44606 -38.44357 -38.43923 -38.43774 -38.43740
  Beta  occ. eigenvalues --  -38.43335 -38.43160  -2.20478  -2.20152  -2.19902
  Beta  occ. eigenvalues --   -2.19817  -2.19785  -2.19230  -2.19210  -1.14201
  Beta  occ. eigenvalues --   -1.14183  -1.14110  -1.13859  -1.13801  -1.13787
  Beta  occ. eigenvalues --   -1.13747  -1.13663  -1.13590  -1.13518  -1.13508
  Beta  occ. eigenvalues --   -1.13485  -1.13432  -1.13400  -1.13368  -1.12912
  Beta  occ. eigenvalues --   -1.12884  -1.12877  -1.12840  -1.12819  -1.12807
  Beta  occ. eigenvalues --   -0.18884  -0.13185  -0.12003
  Beta virt. eigenvalues --   -0.07575  -0.06141  -0.04766  -0.03280  -0.03194
  Beta virt. eigenvalues --   -0.02406  -0.01868  -0.01510  -0.00938  -0.00166
  Beta virt. eigenvalues --    0.00186   0.00299   0.00538   0.00761   0.00840

 Mulliken charges and spin densities:
               1          2
     1  Na  -0.885100   0.130958
     2  Na   1.931795   0.233669
     3  Na  -0.005568  -0.028682
     4  Na  -1.089233   0.157190
     5  Na  -0.285140   0.056114
     6  Na  -0.223882   0.368957
     7  Na   0.557127   0.081794
 Sum of Mulliken charges =  -0.00000   1.00000

 Dipole moment (field-independent basis, Debye):
    X=              0.0771    Y=              0.3548    Z=              0.1130  Tot=              0.3802
 Quadrupole moment (field-independent basis, Debye-Ang):
   XX=            -52.7109   YY=            -70.2125   ZZ=            -70.5956
   XY=             -3.5228   XZ=             -0.1866   YZ=             -1.0026

 Normal termination of Gaussian 16 at Mon Nov 13 18:46:20 2023.
