 Gaussian 16, Revision B.01,
 Gaussian 16:  ES64L-G16RevB.01 20-Dec-2017

 -------------------------
 #P B3LYP/6-311+g(d) force
 -------------------------

 ------------------------------
 Gaussian input prepared by ASE
 ------------------------------
 Symbolic Z-matrix:
 Charge =  0 Multiplicity = 2

                         Standard orientation:
 ---------------------------------------------------------------------
 Center     Atomic      Atomic             Coordinates (Angstroms)
 Number     Number       Type             X           Y           Z
 ---------------------------------------------------------------------
      1         11           0       -0.108990   -0.665364   -1.190958
      2         11           0        0.703860   -1.094433    1.414418
      3         11           0        2.741906   -1.032021   -0.673473
      4         11           0        1.568065    1.355913    0.527868
      5         11           0       -0.629429    2.040036   -0.975588
      6         11           0       -1.416537    0.664392    1.279835
      7         11           0       -2.858875   -1.268522   -0.382103
 ---------------------------------------------------------------------

 SCF Done:  E(UB3LYP) =  -1136.07467986     A.U. after   21 cycles

 The electronic state is 2-A.
 Alpha  occ. eigenvalues --  -38.44273 -38.44150 -38.44092 -38.43822 -38.43679
 Alpha  occ. eigenvalues --  -38.43469 -38.43399  -2.20503  -2.20173  -2.20074
 Alpha  occ. eigenvalues --   -2.20032  -2.20011  -2.19644  -2.19573  -1.14486
 Alpha  occ. eigenvalues --   -1.14314  -1.14165  -1.14011  -1.13928  -1.13865
 Alpha  occ. eigenvalues --   -1.13832  -1.13788  -1.13771  -1.13728  -1.13658
 Alpha  occ. eigenvalues --   -1.13632  -1.13597  -1.13538  -1.13503  -1.13448
 Alpha  occ. eigenvalues --   -1.13283  -1.13196  -1.13147  -1.13124  -1.12993
 Alpha  occ. eigenvalues --   -0.21329  -0.14219  -0.12289  -0.12076
 Alpha virt. eigenvalues --   -0.05725  -0.04384  -0.03877  -0.03423  -0.02698
 Alpha virt. eigenvalues --   -0.02625  -0.01561  -0.00581  -0.00232   0.00305
 Alpha virt. eigenvalues --    0.00659   0.00722   0.00976   0.01052   0.01112

  Beta  occ. eigenvalues --  -38.44204 -38.44135 -38.44087 -38.43769 -38.43618
  Beta  occ. eigenvalues --  -38.43441 -38.43374  -2.20384  -2.20146  -2.20018
  Beta  occ. eigenvalues --   -2.19974  -2.19922  -2.19606  -2.19528  -1.14414
  Beta  occ. eigenvalues --   -1.14222  -1.14067  -1.13953  -1.13879  -1.13844
  Beta  occ. eigenvalues --   -1.13801  -1.13753  -1.13731  -1.13668  -1.13605
  Beta  occ. eigenvalues --   -1.13569  -1.13532  -1.13505  -1.13443  -1.13399
  Beta  occ. eigenvalues --   -1.13244  -1.13132  -1.13102  -1.13067  -1.12963
  Beta  occ. eigenvalues --   -0.20459  -0.13971  -0.11866
  Beta virt. eigenvalues --   -0.07843  -0.05673  -0.04271  -0.03337  -0.03073
  Beta virt. eigenvalues --   -0.02032  -0.01571  -0.01449  -0.00511  -0.00013
  Beta virt. eigenvalues --    0.00332   0.00679   0.00789   0.00976   0.01070

 Mulliken charges and spin densities:
               1          2
     1  Na  -0.819593   0.366165
     2  Na  -0.077098   0.398270
     3  Na   1.109994  -0.099491
     4  Na  -0.164704   0.372316
     5  Na   0.325463   0.083607
     6  Na  -0.066615  -0.137399
     7  Na  -0.307448   0.016532
 Sum of Mulliken charges =  -0.00000   1.00000

 Dipole moment (field-independent basis, Debye):
    X=             -0.1038    Y=             -0.1924    Z=             -0.2474  Tot=              0.3302
 Quadrupole moment (field-independent basis, Debye-Ang):
   XX=            -54.5774   YY=            -72.7294   ZZ=            -67.5062
   XY=              0.1337   XZ=             -0.5278   YZ=              0.3248

 Normal termination of Gaussian 16 at Mon Nov 13 19:41:09 2023.
