 Gaussian 16, Revision B.01,
 Gaussian 16:  ES64L-G16RevB.01 20-Dec-2017

 -------------------------
 #P B3LYP/6-311+g(d) force
 -------------------------

 ------------------------------
 Gaussian input prepared by ASE
 ------------------------------
 Symbolic Z-matrix:
 Charge =  0 Multiplicity = 2

                         Standard orientation:
 ---------------------------------------------------------------------
 Center     Atomic      Atomic             Coordinates (Angstroms)
 Number     Number       Type             X           Y           Z
 ---------------------------------------------------------------------
      1         11           0        1.693904    1.594881   -0.020745
      2         11           0        0.498264   -0.107000   -1.732304
      3         11           0        2.641136   -1.117989   -0.019569
      4         11           0        0.546293   -0.090575    1.738711
      5         11           0       -1.151445    1.616346    0.017925
      6         11           0       -0.847736   -1.655565    0.029530
      7         11           0       -3.380416   -0.240098   -0.013548
 ---------------------------------------------------------------------

 SCF Done:  E(UB3LYP) =  -1136.06888424     A.U. after   24 cycles

 The electronic state is 2-A.
 Alpha  occ. eigenvalues --  -38.45530 -38.44566 -38.44559 -38.44246 -38.43624
 Alpha  occ. eigenvalues --  -38.43422 -38.42764  -2.21437  -2.20829  -2.20816
 Alpha  occ. eigenvalues --   -2.20305  -2.19857  -2.19586  -2.18940  -1.15153
 Alpha  occ. eigenvalues --   -1.15121  -1.15050  -1.14733  -1.14617  -1.14610
 Alpha  occ. eigenvalues --   -1.14540  -1.14452  -1.14413  -1.14021  -1.13930
 Alpha  occ. eigenvalues --   -1.13876  -1.13526  -1.13452  -1.13409  -1.13264
 Alpha  occ. eigenvalues --   -1.13240  -1.13110  -1.12661  -1.12568  -1.12534
 Alpha  occ. eigenvalues --   -0.21468  -0.14708  -0.11998  -0.11844
 Alpha virt. eigenvalues --   -0.06749  -0.04254  -0.03987  -0.03397  -0.02454
 Alpha virt. eigenvalues --   -0.02338  -0.02208  -0.00529  -0.00119   0.00171
 Alpha virt. eigenvalues --    0.00449   0.00609   0.00809   0.00986   0.01042

  Beta  occ. eigenvalues --  -38.45538 -38.44470 -38.44462 -38.44231 -38.43602
  Beta  occ. eigenvalues --  -38.43402 -38.42749  -2.21454  -2.20657  -2.20642
  Beta  occ. eigenvalues --   -2.20284  -2.19827  -2.19557  -2.18920  -1.15163
  Beta  occ. eigenvalues --   -1.15137  -1.15047  -1.14645  -1.14495  -1.14480
  Beta  occ. eigenvalues --   -1.14430  -1.14337  -1.14286  -1.13998  -1.13863
  Beta  occ. eigenvalues --   -1.13857  -1.13507  -1.13397  -1.13352  -1.13249
  Beta  occ. eigenvalues --   -1.13150  -1.13100  -1.12655  -1.12529  -1.12492
  Beta  occ. eigenvalues --   -0.20650  -0.14410  -0.11487
  Beta virt. eigenvalues --   -0.07774  -0.06664  -0.04274  -0.03170  -0.03069
  Beta virt. eigenvalues --   -0.02175  -0.01586  -0.01435  -0.00503   0.00071
  Beta virt. eigenvalues --    0.00208   0.00465   0.00593   0.01008   0.01048

 Mulliken charges and spin densities:
               1          2
     1  Na   0.314841   0.006406
     2  Na  -0.135924   0.445605
     3  Na   0.443082   0.030231
     4  Na  -0.100003   0.436844
     5  Na  -0.241328   0.070688
     6  Na   0.058934   0.172610
     7  Na  -0.339602  -0.162383
 Sum of Mulliken charges =  -0.00000   1.00000

 Dipole moment (field-independent basis, Debye):
    X=             -0.7017    Y=             -0.2252    Z=             -0.0068  Tot=              0.7370
 Quadrupole moment (field-independent basis, Debye-Ang):
   XX=            -47.7908   YY=            -76.7877   ZZ=            -69.9065
   XY=             -0.8528   XZ=              0.0145   YZ=             -0.0007

 Normal termination of Gaussian 16 at Mon Nov 13 19:52:29 2023.
