 Gaussian 16, Revision B.01,
 Gaussian 16:  ES64L-G16RevB.01 20-Dec-2017

 -------------------------
 #P B3LYP/6-311+g(d) force
 -------------------------

 ------------------------------
 Gaussian input prepared by ASE
 ------------------------------
 Symbolic Z-matrix:
 Charge =  0 Multiplicity = 2

                         Standard orientation:
 ---------------------------------------------------------------------
 Center     Atomic      Atomic             Coordinates (Angstroms)
 Number     Number       Type             X           Y           Z
 ---------------------------------------------------------------------
      1         11           0       -1.055347   -0.355860   -1.841654
      2         11           0       -2.521218   -2.014573    0.183410
      3         11           0       -2.278457    1.961461   -0.379330
      4         11           0       -1.346491    0.184990    1.855494
      5         11           0        2.661073    2.436707    0.023895
      6         11           0        1.139228   -0.134903    0.198346
      7         11           0        3.401211   -2.077822   -0.040161
 ---------------------------------------------------------------------

 SCF Done:  E(UB3LYP) =  -1136.09457726     A.U. after   25 cycles

 The electronic state is 2-A.
 Alpha  occ. eigenvalues --  -38.45057 -38.44831 -38.44446 -38.44386 -38.44087
 Alpha  occ. eigenvalues --  -38.44039 -38.43075  -2.20818  -2.20597  -2.20360
 Alpha  occ. eigenvalues --   -2.20298  -2.20107  -2.20062  -2.19160  -1.14541
 Alpha  occ. eigenvalues --   -1.14484  -1.14440  -1.14316  -1.14258  -1.14235
 Alpha  occ. eigenvalues --   -1.14107  -1.14088  -1.14034  -1.14027  -1.13945
 Alpha  occ. eigenvalues --   -1.13904  -1.13803  -1.13761  -1.13686  -1.13675
 Alpha  occ. eigenvalues --   -1.13650  -1.13624  -1.12865  -1.12836  -1.12743
 Alpha  occ. eigenvalues --   -0.19158  -0.13627  -0.11373  -0.11206
 Alpha virt. eigenvalues --   -0.06725  -0.06191  -0.03296  -0.03108  -0.02730
 Alpha virt. eigenvalues --   -0.02520  -0.02274  -0.01719  -0.00331  -0.00207
 Alpha virt. eigenvalues --    0.00164   0.00178   0.00412   0.00505   0.00712

  Beta  occ. eigenvalues --  -38.45092 -38.44870 -38.44395 -38.44346 -38.43993
  Beta  occ. eigenvalues --  -38.43944 -38.43061  -2.20883  -2.20670  -2.20271
  Beta  occ. eigenvalues --   -2.20231  -2.19938  -2.19890  -2.19135  -1.14584
  Beta  occ. eigenvalues --   -1.14525  -1.14486  -1.14363  -1.14305  -1.14285
  Beta  occ. eigenvalues --   -1.14049  -1.13985  -1.13972  -1.13926  -1.13890
  Beta  occ. eigenvalues --   -1.13859  -1.13690  -1.13643  -1.13579  -1.13543
  Beta  occ. eigenvalues --   -1.13541  -1.13492  -1.12831  -1.12793  -1.12753
  Beta  occ. eigenvalues --   -0.18257  -0.13667  -0.11067
  Beta virt. eigenvalues --   -0.06975  -0.06750  -0.05987  -0.03041  -0.02739
  Beta virt. eigenvalues --   -0.02407  -0.01699  -0.01669  -0.01414  -0.00335
  Beta virt. eigenvalues --    0.00039   0.00144   0.00257   0.00444   0.00516

 Mulliken charges and spin densities:
               1          2
     1  Na  -0.693848   0.561204
     2  Na   0.468233  -0.024197
     3  Na   1.047654   0.080542
     4  Na  -0.225174   0.486564
     5  Na   0.598920  -0.151020
     6  Na  -1.418374   0.241991
     7  Na   0.222590  -0.195085
 Sum of Mulliken charges =  -0.00000   1.00000

 Dipole moment (field-independent basis, Debye):
    X=              0.3502    Y=              0.2299    Z=             -0.1173  Tot=              0.4350
 Quadrupole moment (field-independent basis, Debye-Ang):
   XX=            -52.9641   YY=            -65.3649   ZZ=            -73.2454
   XY=              0.9131   XZ=             -0.5262   YZ=             -0.6919

 Normal termination of Gaussian 16 at Mon Nov 13 18:27:26 2023.
