 Gaussian 16, Revision B.01,
 Gaussian 16:  ES64L-G16RevB.01 20-Dec-2017

 -------------------------
 #P B3LYP/6-311+g(d) force
 -------------------------

 ------------------------------
 Gaussian input prepared by ASE
 ------------------------------
 Symbolic Z-matrix:
 Charge =  0 Multiplicity = 2

                         Standard orientation:
 ---------------------------------------------------------------------
 Center     Atomic      Atomic             Coordinates (Angstroms)
 Number     Number       Type             X           Y           Z
 ---------------------------------------------------------------------
      1         11           0        0.598718   -0.829633   -0.105594
      2         11           0       -1.793952   -1.111046    1.686449
      3         11           0       -2.111887   -1.398862   -1.272539
      4         11           0       -2.759676    1.215929    0.055369
      5         11           0        0.014458    2.047632   -0.749241
      6         11           0        2.497393    1.318918    0.761979
      7         11           0        3.554945   -1.242938   -0.376422
 ---------------------------------------------------------------------

 SCF Done:  E(UB3LYP) =  -1136.09520267     A.U. after   26 cycles

 The electronic state is 2-A.
 Alpha  occ. eigenvalues --  -38.45172 -38.44983 -38.44520 -38.43928 -38.43674
 Alpha  occ. eigenvalues --  -38.43644 -38.42583  -2.21044  -2.20967  -2.20495
 Alpha  occ. eigenvalues --   -2.19935  -2.19817  -2.19683  -2.18562  -1.14772
 Alpha  occ. eigenvalues --   -1.14723  -1.14668  -1.14667  -1.14639  -1.14625
 Alpha  occ. eigenvalues --   -1.14237  -1.14125  -1.14108  -1.13740  -1.13619
 Alpha  occ. eigenvalues --   -1.13561  -1.13539  -1.13473  -1.13416  -1.13312
 Alpha  occ. eigenvalues --   -1.13287  -1.13243  -1.12269  -1.12226  -1.12167
 Alpha  occ. eigenvalues --   -0.19677  -0.15149  -0.11591  -0.10541
 Alpha virt. eigenvalues --   -0.07165  -0.05609  -0.04070  -0.03334  -0.02685
 Alpha virt. eigenvalues --   -0.02105  -0.01761  -0.01137  -0.00326  -0.00202
 Alpha virt. eigenvalues --    0.00124   0.00303   0.00449   0.00724   0.00744

  Beta  occ. eigenvalues --  -38.45182 -38.44959 -38.44513 -38.43880 -38.43612
  Beta  occ. eigenvalues --  -38.43603 -38.42575  -2.21063  -2.20931  -2.20481
  Beta  occ. eigenvalues --   -2.19850  -2.19768  -2.19552  -2.18549  -1.14784
  Beta  occ. eigenvalues --   -1.14731  -1.14679  -1.14652  -1.14609  -1.14549
  Beta  occ. eigenvalues --   -1.14228  -1.14117  -1.14097  -1.13692  -1.13549
  Beta  occ. eigenvalues --   -1.13482  -1.13470  -1.13441  -1.13347  -1.13225
  Beta  occ. eigenvalues --   -1.13206  -1.13144  -1.12263  -1.12218  -1.12130
  Beta  occ. eigenvalues --   -0.18959  -0.14976  -0.11401
  Beta virt. eigenvalues --   -0.06966  -0.06545  -0.05417  -0.03559  -0.03185
  Beta virt. eigenvalues --   -0.02636  -0.01545  -0.01012  -0.00866  -0.00206
  Beta virt. eigenvalues --    0.00046   0.00198   0.00337   0.00657   0.00777

 Mulliken charges and spin densities:
               1          2
     1  Na  -1.191672   0.638216
     2  Na   0.363130   0.179366
     3  Na   0.089693   0.171971
     4  Na   0.807375   0.347813
     5  Na  -0.441143  -0.074229
     6  Na   0.465504  -0.030647
     7  Na  -0.092887  -0.232492
 Sum of Mulliken charges =  -0.00000   1.00000

 Dipole moment (field-independent basis, Debye):
    X=              0.8112    Y=              0.0152    Z=             -0.0854  Tot=              0.8158
 Quadrupole moment (field-independent basis, Debye-Ang):
   XX=            -46.2545   YY=            -73.8823   ZZ=            -72.8290
   XY=             -1.6432   XZ=              1.3506   YZ=              2.0872

 Normal termination of Gaussian 16 at Mon Nov 13 15:45:24 2023.
