 Gaussian 16, Revision B.01,
 Gaussian 16:  ES64L-G16RevB.01 20-Dec-2017

 -------------------------
 #P B3LYP/6-311+g(d) force
 -------------------------

 ------------------------------
 Gaussian input prepared by ASE
 ------------------------------
 Symbolic Z-matrix:
 Charge =  0 Multiplicity = 2

                         Standard orientation:
 ---------------------------------------------------------------------
 Center     Atomic      Atomic             Coordinates (Angstroms)
 Number     Number       Type             X           Y           Z
 ---------------------------------------------------------------------
      1         11           0        1.581056    2.323588   -0.185690
      2         11           0       -2.585193   -2.011759    0.013243
      3         11           0       -2.626719    2.201604   -0.088963
      4         11           0       -0.462729    0.119273   -0.027670
      5         11           0        0.882666   -1.240968   -2.343158
      6         11           0        2.458296   -0.523846    0.098776
      7         11           0        0.752623   -0.867892    2.533462
 ---------------------------------------------------------------------

 SCF Done:  E(UB3LYP) =  -1136.10248485     A.U. after   24 cycles

 The electronic state is 2-A.
 Alpha  occ. eigenvalues --  -38.45382 -38.44889 -38.44037 -38.43684 -38.43471
 Alpha  occ. eigenvalues --  -38.43404 -38.42134  -2.21292  -2.20798  -2.19836
 Alpha  occ. eigenvalues --   -2.19549  -2.19480  -2.19301  -2.18441  -1.15001
 Alpha  occ. eigenvalues --   -1.14927  -1.14849  -1.14517  -1.14444  -1.14360
 Alpha  occ. eigenvalues --   -1.13554  -1.13490  -1.13453  -1.13305  -1.13235
 Alpha  occ. eigenvalues --   -1.13205  -1.13193  -1.13143  -1.13089  -1.13003
 Alpha  occ. eigenvalues --   -1.12932  -1.12890  -1.12193  -1.12103  -1.12028
 Alpha  occ. eigenvalues --   -0.19243  -0.12831  -0.12428  -0.11469
 Alpha virt. eigenvalues --   -0.05504  -0.05025  -0.04173  -0.03428  -0.02876
 Alpha virt. eigenvalues --   -0.02765  -0.01374  -0.00906  -0.00577   0.00280
 Alpha virt. eigenvalues --    0.00332   0.00394   0.00608   0.00886   0.00913

  Beta  occ. eigenvalues --  -38.45267 -38.44797 -38.44043 -38.43694 -38.43451
  Beta  occ. eigenvalues --  -38.43398 -38.42111  -2.21081  -2.20629  -2.19849
  Beta  occ. eigenvalues --   -2.19525  -2.19499  -2.19291  -2.18407  -1.14858
  Beta  occ. eigenvalues --   -1.14778  -1.14701  -1.14403  -1.14326  -1.14241
  Beta  occ. eigenvalues --   -1.13563  -1.13490  -1.13465  -1.13300  -1.13214
  Beta  occ. eigenvalues --   -1.13192  -1.13153  -1.13130  -1.13103  -1.12996
  Beta  occ. eigenvalues --   -1.12908  -1.12887  -1.12097  -1.12083  -1.12017
  Beta  occ. eigenvalues --   -0.18312  -0.12661  -0.11267
  Beta virt. eigenvalues --   -0.08225  -0.05415  -0.04839  -0.03506  -0.02673
  Beta virt. eigenvalues --   -0.02520  -0.02091  -0.01314  -0.00886  -0.00254
  Beta virt. eigenvalues --    0.00314   0.00388   0.00413   0.00888   0.00953

 Mulliken charges and spin densities:
               1          2
     1  Na   0.385070   0.175268
     2  Na  -0.078466   0.092727
     3  Na  -0.084242  -0.097683
     4  Na  -1.844934  -0.209510
     5  Na   0.049124   0.465553
     6  Na   1.537279   0.080388
     7  Na   0.036169   0.493257
 Sum of Mulliken charges =  -0.00000   1.00000

 Dipole moment (field-independent basis, Debye):
    X=             -0.0605    Y=             -0.5073    Z=              0.1311  Tot=              0.5275
 Quadrupole moment (field-independent basis, Debye-Ang):
   XX=            -60.7532   YY=            -69.2165   ZZ=            -61.8687
   XY=              1.5115   XZ=             -0.3474   YZ=             -0.3296

 Normal termination of Gaussian 16 at Mon Nov 13 20:09:49 2023.
