 Gaussian 16, Revision B.01,
 Gaussian 16:  ES64L-G16RevB.01 20-Dec-2017

 -------------------------
 #P B3LYP/6-311+g(d) force
 -------------------------

 ------------------------------
 Gaussian input prepared by ASE
 ------------------------------
 Symbolic Z-matrix:
 Charge =  0 Multiplicity = 2

                         Standard orientation:
 ---------------------------------------------------------------------
 Center     Atomic      Atomic             Coordinates (Angstroms)
 Number     Number       Type             X           Y           Z
 ---------------------------------------------------------------------
      1         11           0       -0.702462    2.202031    0.047268
      2         11           0        3.782718    1.507001   -0.098157
      3         11           0        3.900836   -1.478314    0.099106
      4         11           0        1.241457   -0.085701   -0.005568
      5         11           0       -0.850424   -2.240726   -0.047768
      6         11           0       -3.741689   -1.449227   -0.025024
      7         11           0       -3.630435    1.544935    0.030143
 ---------------------------------------------------------------------

 SCF Done:  E(UB3LYP) =  -1136.10244786     A.U. after   28 cycles

 The electronic state is 2-A.
 Alpha  occ. eigenvalues --  -38.45441 -38.45351 -38.44199 -38.44181 -38.43702
 Alpha  occ. eigenvalues --  -38.43160 -38.43078  -2.21339  -2.21249  -2.20090
 Alpha  occ. eigenvalues --   -2.20067  -2.19808  -2.19049  -2.18967  -1.15119
 Alpha  occ. eigenvalues --   -1.14998  -1.14976  -1.14916  -1.14877  -1.14810
 Alpha  occ. eigenvalues --   -1.13892  -1.13773  -1.13735  -1.13734  -1.13697
 Alpha  occ. eigenvalues --   -1.13621  -1.13525  -1.13496  -1.13430  -1.12729
 Alpha  occ. eigenvalues --   -1.12684  -1.12679  -1.12649  -1.12604  -1.12598
 Alpha  occ. eigenvalues --   -0.18102  -0.15352  -0.11623  -0.11375
 Alpha virt. eigenvalues --   -0.06883  -0.04704  -0.04502  -0.03431  -0.03349
 Alpha virt. eigenvalues --   -0.02902  -0.01623  -0.00857  -0.00582  -0.00183
 Alpha virt. eigenvalues --   -0.00062   0.00228   0.00500   0.00622   0.00846

  Beta  occ. eigenvalues --  -38.45403 -38.45309 -38.44172 -38.44153 -38.43636
  Beta  occ. eigenvalues --  -38.43138 -38.43058  -2.21273  -2.21176  -2.20041
  Beta  occ. eigenvalues --   -2.20017  -2.19700  -2.19010  -2.18933  -1.15076
  Beta  occ. eigenvalues --   -1.14936  -1.14926  -1.14863  -1.14830  -1.14737
  Beta  occ. eigenvalues --   -1.13840  -1.13742  -1.13705  -1.13701  -1.13665
  Beta  occ. eigenvalues --   -1.13580  -1.13422  -1.13381  -1.13366  -1.12679
  Beta  occ. eigenvalues --   -1.12660  -1.12659  -1.12603  -1.12583  -1.12581
  Beta  occ. eigenvalues --   -0.17275  -0.14766  -0.11549
  Beta virt. eigenvalues --   -0.07561  -0.06764  -0.04459  -0.03929  -0.03108
  Beta virt. eigenvalues --   -0.02800  -0.02635  -0.01393  -0.00866  -0.00196
  Beta virt. eigenvalues --   -0.00090   0.00171   0.00375   0.00629   0.00675

 Mulliken charges and spin densities:
               1          2
     1  Na   2.123646  -0.338922
     2  Na   0.483767   0.274729
     3  Na   0.316249   0.335798
     4  Na  -4.620337   0.261310
     5  Na   1.866027  -0.271783
     6  Na  -0.145555   0.328077
     7  Na  -0.023797   0.410792
 Sum of Mulliken charges =  -0.00000   1.00000

 Dipole moment (field-independent basis, Debye):
    X=              2.0810    Y=              0.0217    Z=              0.0008  Tot=              2.0811
 Quadrupole moment (field-independent basis, Debye-Ang):
   XX=            -54.5844   YY=            -68.2301   ZZ=            -72.1214
   XY=              0.2561   XZ=              0.0012   YZ=             -0.5910

 Normal termination of Gaussian 16 at Mon Nov 13 15:31:40 2023.
