 Gaussian 16, Revision B.01,
 Gaussian 16:  ES64L-G16RevB.01 20-Dec-2017

 -------------------------
 #P B3LYP/6-311+g(d) force
 -------------------------

 ------------------------------
 Gaussian input prepared by ASE
 ------------------------------
 Symbolic Z-matrix:
 Charge =  0 Multiplicity = 2

                         Standard orientation:
 ---------------------------------------------------------------------
 Center     Atomic      Atomic             Coordinates (Angstroms)
 Number     Number       Type             X           Y           Z
 ---------------------------------------------------------------------
      1         11           0        1.068025   -2.089858    1.663842
      2         11           0        1.902238   -2.423426   -1.193778
      3         11           0       -4.594535    0.277126    0.640686
      4         11           0       -2.265827   -0.726165   -0.957180
      5         11           0        0.552319    0.107415   -0.312303
      6         11           0        2.915528    1.748917    0.551140
      7         11           0        0.422252    3.105991   -0.392407
 ---------------------------------------------------------------------

 SCF Done:  E(UB3LYP) =  -1136.10271944     A.U. after   24 cycles

 The electronic state is 2-A.
 Alpha  occ. eigenvalues --  -38.44630 -38.44327 -38.44310 -38.44295 -38.43821
 Alpha  occ. eigenvalues --  -38.43208 -38.43170  -2.20526  -2.20233  -2.20214
 Alpha  occ. eigenvalues --   -2.20181  -2.19638  -2.19371  -2.19098  -1.14267
 Alpha  occ. eigenvalues --   -1.14213  -1.14138  -1.14022  -1.13947  -1.13896
 Alpha  occ. eigenvalues --   -1.13869  -1.13848  -1.13839  -1.13826  -1.13805
 Alpha  occ. eigenvalues --   -1.13712  -1.13342  -1.13273  -1.13268  -1.13113
 Alpha  occ. eigenvalues --   -1.13032  -1.12995  -1.12766  -1.12732  -1.12709
 Alpha  occ. eigenvalues --   -0.18300  -0.13307  -0.13025  -0.09956
 Alpha virt. eigenvalues --   -0.06652  -0.05382  -0.04342  -0.03238  -0.02823
 Alpha virt. eigenvalues --   -0.01861  -0.01693  -0.01590  -0.01004  -0.00311
 Alpha virt. eigenvalues --    0.00028   0.00269   0.00437   0.00619   0.00773

  Beta  occ. eigenvalues --  -38.44615 -38.44291 -38.44288 -38.44284 -38.43781
  Beta  occ. eigenvalues --  -38.43195 -38.43128  -2.20501  -2.20184  -2.20166
  Beta  occ. eigenvalues --   -2.20153  -2.19562  -2.19306  -2.19080  -1.14252
  Beta  occ. eigenvalues --   -1.14186  -1.14102  -1.14007  -1.13895  -1.13875
  Beta  occ. eigenvalues --   -1.13854  -1.13821  -1.13791  -1.13787  -1.13758
  Beta  occ. eigenvalues --   -1.13695  -1.13294  -1.13220  -1.13216  -1.13072
  Beta  occ. eigenvalues --   -1.12959  -1.12922  -1.12749  -1.12714  -1.12666
  Beta  occ. eigenvalues --   -0.17667  -0.13131  -0.12637
  Beta virt. eigenvalues --   -0.06514  -0.06175  -0.05182  -0.04132  -0.02779
  Beta virt. eigenvalues --   -0.02557  -0.01719  -0.01470  -0.01079  -0.00812
  Beta virt. eigenvalues --   -0.00029   0.00153   0.00378   0.00613   0.00706

 Mulliken charges and spin densities:
               1          2
     1  Na   0.544276   0.413947
     2  Na   0.809567  -0.131432
     3  Na   0.172710   0.283395
     4  Na   0.849624   0.167410
     5  Na  -3.416867   0.583418
     6  Na   0.730953  -0.235665
     7  Na   0.309736  -0.081074
 Sum of Mulliken charges =  -0.00000   1.00000

 Dipole moment (field-independent basis, Debye):
    X=              1.4172    Y=              0.2601    Z=             -0.0917  Tot=              1.4438
 Quadrupole moment (field-independent basis, Debye-Ang):
   XX=            -62.4762   YY=            -60.7217   ZZ=            -71.0334
   XY=             -3.9219   XZ=             -4.7366   YZ=              1.4506

 Normal termination of Gaussian 16 at Mon Nov 13 17:25:26 2023.
