 Gaussian 16, Revision B.01,
 Gaussian 16:  ES64L-G16RevB.01 20-Dec-2017

 -------------------------
 #P B3LYP/6-311+g(d) force
 -------------------------

 ------------------------------
 Gaussian input prepared by ASE
 ------------------------------
 Symbolic Z-matrix:
 Charge =  0 Multiplicity = 2

                         Standard orientation:
 ---------------------------------------------------------------------
 Center     Atomic      Atomic             Coordinates (Angstroms)
 Number     Number       Type             X           Y           Z
 ---------------------------------------------------------------------
      1         11           0       -0.664017   -0.944973    1.344701
      2         11           0        0.926611   -2.036774   -0.949412
      3         11           0        3.280505   -0.465216    0.048828
      4         11           0        1.300209    1.332225    1.409210
      5         11           0       -0.010153    2.511241   -1.021322
      6         11           0       -1.343617   -0.141816   -1.460208
      7         11           0       -3.489539   -0.254687    0.628203
 ---------------------------------------------------------------------

 SCF Done:  E(UB3LYP) =  -1136.10331792     A.U. after   21 cycles

 The electronic state is 2-A.
 Alpha  occ. eigenvalues --  -38.45251 -38.45161 -38.44118 -38.43691 -38.43433
 Alpha  occ. eigenvalues --  -38.43200 -38.43072  -2.21131  -2.21037  -2.20199
 Alpha  occ. eigenvalues --   -2.19786  -2.19424  -2.19183  -2.18977  -1.14843
 Alpha  occ. eigenvalues --   -1.14810  -1.14738  -1.14729  -1.14716  -1.14655
 Alpha  occ. eigenvalues --   -1.13952  -1.13871  -1.13821  -1.13495  -1.13430
 Alpha  occ. eigenvalues --   -1.13412  -1.13103  -1.13093  -1.13055  -1.12863
 Alpha  occ. eigenvalues --   -1.12809  -1.12802  -1.12655  -1.12605  -1.12578
 Alpha  occ. eigenvalues --   -0.19615  -0.13951  -0.11863  -0.11715
 Alpha virt. eigenvalues --   -0.06789  -0.04343  -0.03879  -0.03609  -0.02978
 Alpha virt. eigenvalues --   -0.02669  -0.02420  -0.00406  -0.00309   0.00120
 Alpha virt. eigenvalues --    0.00340   0.00361   0.00619   0.00870   0.01008

  Beta  occ. eigenvalues --  -38.45231 -38.45163 -38.44066 -38.43631 -38.43400
  Beta  occ. eigenvalues --  -38.43168 -38.43043  -2.21095  -2.21041  -2.20108
  Beta  occ. eigenvalues --   -2.19680  -2.19365  -2.19127  -2.18925  -1.14822
  Beta  occ. eigenvalues --   -1.14768  -1.14727  -1.14721  -1.14707  -1.14659
  Beta  occ. eigenvalues --   -1.13882  -1.13795  -1.13755  -1.13416  -1.13351
  Beta  occ. eigenvalues --   -1.13320  -1.13066  -1.13037  -1.13018  -1.12828
  Beta  occ. eigenvalues --   -1.12769  -1.12746  -1.12607  -1.12565  -1.12544
  Beta  occ. eigenvalues --   -0.18881  -0.13709  -0.11636
  Beta virt. eigenvalues --   -0.07664  -0.06630  -0.03936  -0.03717  -0.03200
  Beta virt. eigenvalues --   -0.02446  -0.02275  -0.01632  -0.00317  -0.00100
  Beta virt. eigenvalues --    0.00171   0.00389   0.00426   0.00691   0.00893

 Mulliken charges and spin densities:
               1          2
     1  Na  -0.170533   0.270059
     2  Na   0.205706   0.176270
     3  Na   0.021503  -0.002881
     4  Na  -0.180515   0.119473
     5  Na   0.068187   0.045287
     6  Na  -0.334621   0.240652
     7  Na   0.390274   0.151140
 Sum of Mulliken charges =  -0.00000   1.00000

 Dipole moment (field-independent basis, Debye):
    X=             -0.2420    Y=              0.0353    Z=              0.1114  Tot=              0.2688
 Quadrupole moment (field-independent basis, Debye-Ang):
   XX=            -49.3765   YY=            -75.4910   ZZ=            -69.5248
   XY=             -0.5545   XZ=             -1.2915   YZ=             -0.5653

 Normal termination of Gaussian 16 at Mon Nov 13 16:04:13 2023.
