 Gaussian 16, Revision B.01,
 Gaussian 16:  ES64L-G16RevB.01 20-Dec-2017

 -------------------------
 #P B3LYP/6-311+g(d) force
 -------------------------

 ------------------------------
 Gaussian input prepared by ASE
 ------------------------------
 Symbolic Z-matrix:
 Charge =  0 Multiplicity = 2

                         Standard orientation:
 ---------------------------------------------------------------------
 Center     Atomic      Atomic             Coordinates (Angstroms)
 Number     Number       Type             X           Y           Z
 ---------------------------------------------------------------------
      1         11           0       -0.024978    1.813984   -0.115685
      2         11           0        0.363727   -0.276002   -1.837727
      3         11           0       -3.991861   -0.061378   -0.021171
      4         11           0       -1.216061   -0.582936    0.358168
      5         11           0        2.431593    0.723657   -0.348006
      6         11           0        0.917845    0.182650    1.865139
      7         11           0        1.519734   -1.799974    0.099282
 ---------------------------------------------------------------------

 SCF Done:  E(UB3LYP) =  -1136.03116610     A.U. after   46 cycles

 The electronic state is 2-A.
 Alpha  occ. eigenvalues --  -38.46084 -38.45255 -38.44861 -38.44773 -38.44016
 Alpha  occ. eigenvalues --  -38.43722 -38.43548  -2.21879  -2.21555  -2.21148
 Alpha  occ. eigenvalues --   -2.21071  -2.20341  -2.19992  -2.19782  -1.15627
 Alpha  occ. eigenvalues --   -1.15561  -1.15513  -1.15502  -1.15371  -1.15219
 Alpha  occ. eigenvalues --   -1.15028  -1.14933  -1.14801  -1.14727  -1.14672
 Alpha  occ. eigenvalues --   -1.14606  -1.14127  -1.13945  -1.13880  -1.13628
 Alpha  occ. eigenvalues --   -1.13549  -1.13466  -1.13440  -1.13367  -1.13340
 Alpha  occ. eigenvalues --   -0.22012  -0.14045  -0.13052  -0.11529
 Alpha virt. eigenvalues --   -0.07374  -0.03858  -0.03790  -0.03288  -0.02704
 Alpha virt. eigenvalues --   -0.02408  -0.02179  -0.00572  -0.00265   0.00078
 Alpha virt. eigenvalues --    0.00342   0.00445   0.00608   0.00850   0.01136

  Beta  occ. eigenvalues --  -38.46100 -38.45217 -38.44776 -38.44686 -38.43983
  Beta  occ. eigenvalues --  -38.43682 -38.43513  -2.21909  -2.21495  -2.20998
  Beta  occ. eigenvalues --   -2.20917  -2.20288  -2.19929  -2.19726  -1.15645
  Beta  occ. eigenvalues --   -1.15530  -1.15524  -1.15520  -1.15248  -1.15182
  Beta  occ. eigenvalues --   -1.14947  -1.14831  -1.14680  -1.14599  -1.14563
  Beta  occ. eigenvalues --   -1.14504  -1.14085  -1.13887  -1.13809  -1.13585
  Beta  occ. eigenvalues --   -1.13451  -1.13422  -1.13415  -1.13306  -1.13261
  Beta  occ. eigenvalues --   -0.21048  -0.13899  -0.11326
  Beta virt. eigenvalues --   -0.08324  -0.07204  -0.03447  -0.03229  -0.03082
  Beta virt. eigenvalues --   -0.02255  -0.01823  -0.01542  -0.00341  -0.00177
  Beta virt. eigenvalues --    0.00136   0.00403   0.00594   0.00615   0.00891

 Mulliken charges and spin densities:
               1          2
     1  Na  -0.329233   0.021810
     2  Na  -0.245275   0.370566
     3  Na   0.495975   0.045845
     4  Na   0.246697   0.211549
     5  Na   0.298522   0.141533
     6  Na  -0.173371   0.317472
     7  Na  -0.293314  -0.108775
 Sum of Mulliken charges =  -0.00000   1.00000

 Dipole moment (field-independent basis, Debye):
    X=             -1.3182    Y=              0.1306    Z=             -0.0581  Tot=              1.3259
 Quadrupole moment (field-independent basis, Debye-Ang):
   XX=            -47.3646   YY=            -76.9791   ZZ=            -68.4994
   XY=             -0.7426   XZ=              0.6542   YZ=             -5.4565

 Normal termination of Gaussian 16 at Mon Nov 13 20:06:39 2023.
