 Gaussian 16, Revision B.01,
 Gaussian 16:  ES64L-G16RevB.01 20-Dec-2017

 -------------------------
 #P B3LYP/6-311+g(d) force
 -------------------------

 ------------------------------
 Gaussian input prepared by ASE
 ------------------------------
 Symbolic Z-matrix:
 Charge =  0 Multiplicity = 2

                         Standard orientation:
 ---------------------------------------------------------------------
 Center     Atomic      Atomic             Coordinates (Angstroms)
 Number     Number       Type             X           Y           Z
 ---------------------------------------------------------------------
      1         11           0       -0.357700   -0.031694    1.108041
      2         11           0        1.202033    2.166856   -0.209850
      3         11           0       -1.791826    2.129277   -0.393969
      4         11           0       -3.217932   -0.413197    0.317140
      5         11           0       -1.076992   -2.107763   -0.929937
      6         11           0        1.691945   -2.039152    0.228045
      7         11           0        3.550472    0.295672   -0.119469
 ---------------------------------------------------------------------

 SCF Done:  E(UB3LYP) =  -1136.09987621     A.U. after   25 cycles

 The electronic state is 2-A.
 Alpha  occ. eigenvalues --  -38.44495 -38.44205 -38.43992 -38.43931 -38.43797
 Alpha  occ. eigenvalues --  -38.43646 -38.43462  -2.20469  -2.20190  -2.19976
 Alpha  occ. eigenvalues --   -2.19934  -2.19865  -2.19775  -2.19391  -1.14220
 Alpha  occ. eigenvalues --   -1.14195  -1.14092  -1.13973  -1.13940  -1.13815
 Alpha  occ. eigenvalues --   -1.13743  -1.13667  -1.13646  -1.13621  -1.13571
 Alpha  occ. eigenvalues --   -1.13550  -1.13533  -1.13478  -1.13459  -1.13410
 Alpha  occ. eigenvalues --   -1.13404  -1.13343  -1.13036  -1.13005  -1.12993
 Alpha  occ. eigenvalues --   -0.19677  -0.14748  -0.13331  -0.09703
 Alpha virt. eigenvalues --   -0.06901  -0.05849  -0.04532  -0.03175  -0.02667
 Alpha virt. eigenvalues --   -0.02540  -0.01583  -0.00816  -0.00625  -0.00208
 Alpha virt. eigenvalues --    0.00076   0.00175   0.00690   0.00723   0.00771

  Beta  occ. eigenvalues --  -38.44485 -38.44193 -38.43975 -38.43883 -38.43782
  Beta  occ. eigenvalues --  -38.43594 -38.43391  -2.20458  -2.20174  -2.19952
  Beta  occ. eigenvalues --   -2.19846  -2.19774  -2.19755  -2.19258  -1.14210
  Beta  occ. eigenvalues --   -1.14156  -1.14079  -1.13958  -1.13897  -1.13793
  Beta  occ. eigenvalues --   -1.13705  -1.13620  -1.13614  -1.13588  -1.13527
  Beta  occ. eigenvalues --   -1.13487  -1.13477  -1.13432  -1.13410  -1.13393
  Beta  occ. eigenvalues --   -1.13346  -1.13286  -1.12947  -1.12919  -1.12905
  Beta  occ. eigenvalues --   -0.19202  -0.14060  -0.12974
  Beta virt. eigenvalues --   -0.06768  -0.06124  -0.05646  -0.04470  -0.02705
  Beta virt. eigenvalues --   -0.02364  -0.02002  -0.01117  -0.00610  -0.00403
  Beta virt. eigenvalues --   -0.00105   0.00272   0.00381   0.00774   0.00879

 Mulliken charges and spin densities:
               1          2
     1  Na  -1.201536  -0.294638
     2  Na  -0.054079   0.143308
     3  Na   0.043952  -0.104177
     4  Na   1.021928   0.734848
     5  Na  -0.369223  -0.069368
     6  Na   0.475528   0.264871
     7  Na   0.083430   0.325155
 Sum of Mulliken charges =  -0.00000   1.00000

 Dipole moment (field-independent basis, Debye):
    X=             -0.7016    Y=             -0.1985    Z=              0.0598  Tot=              0.7315
 Quadrupole moment (field-independent basis, Debye-Ang):
   XX=            -74.6515   YY=            -65.2466   ZZ=            -66.9521
   XY=             -3.3620   XZ=              0.2076   YZ=             -0.4184

 Normal termination of Gaussian 16 at Mon Nov 13 16:08:42 2023.
