 Gaussian 16, Revision B.01,
 Gaussian 16:  ES64L-G16RevB.01 20-Dec-2017

 -------------------------
 #P B3LYP/6-311+g(d) force
 -------------------------

 ------------------------------
 Gaussian input prepared by ASE
 ------------------------------
 Symbolic Z-matrix:
 Charge =  0 Multiplicity = 2

                         Standard orientation:
 ---------------------------------------------------------------------
 Center     Atomic      Atomic             Coordinates (Angstroms)
 Number     Number       Type             X           Y           Z
 ---------------------------------------------------------------------
      1         11           0        0.551394   -1.261122   -0.552184
      2         11           0       -0.273246    0.252237    1.905139
      3         11           0       -2.078232   -1.851583    0.752597
      4         11           0       -1.984487   -0.137573   -1.706072
      5         11           0       -1.306574    2.282705   -0.054758
      6         11           0        1.592213    1.508939   -0.072401
      7         11           0        3.498932   -0.793603   -0.272320
 ---------------------------------------------------------------------

 SCF Done:  E(UB3LYP) =  -1136.10563920     A.U. after   21 cycles

 The electronic state is 2-A.
 Alpha  occ. eigenvalues --  -38.44297 -38.44262 -38.44071 -38.43617 -38.43307
 Alpha  occ. eigenvalues --  -38.43191 -38.42921  -2.20275  -2.20189  -2.20178
 Alpha  occ. eigenvalues --   -2.19613  -2.19387  -2.19352  -2.18922  -1.13990
 Alpha  occ. eigenvalues --   -1.13932  -1.13916  -1.13910  -1.13906  -1.13865
 Alpha  occ. eigenvalues --   -1.13854  -1.13808  -1.13788  -1.13331  -1.13249
 Alpha  occ. eigenvalues --   -1.13227  -1.13185  -1.13043  -1.13036  -1.13013
 Alpha  occ. eigenvalues --   -1.12980  -1.12886  -1.12580  -1.12576  -1.12542
 Alpha  occ. eigenvalues --   -0.20278  -0.14020  -0.12272  -0.11800
 Alpha virt. eigenvalues --   -0.05965  -0.04510  -0.03886  -0.03542  -0.02990
 Alpha virt. eigenvalues --   -0.02775  -0.01691  -0.00780  -0.00266   0.00249
 Alpha virt. eigenvalues --    0.00492   0.00562   0.00902   0.00975   0.00987

  Beta  occ. eigenvalues --  -38.44298 -38.44192 -38.43975 -38.43592 -38.43300
  Beta  occ. eigenvalues --  -38.43169 -38.42908  -2.20193  -2.20145  -2.20003
  Beta  occ. eigenvalues --   -2.19574  -2.19376  -2.19319  -2.18904  -1.13924
  Beta  occ. eigenvalues --   -1.13897  -1.13866  -1.13837  -1.13814  -1.13811
  Beta  occ. eigenvalues --   -1.13802  -1.13724  -1.13668  -1.13304  -1.13207
  Beta  occ. eigenvalues --   -1.13184  -1.13166  -1.13036  -1.12997  -1.12966
  Beta  occ. eigenvalues --   -1.12935  -1.12868  -1.12574  -1.12537  -1.12516
  Beta  occ. eigenvalues --   -0.19496  -0.13787  -0.11954
  Beta virt. eigenvalues --   -0.07713  -0.05731  -0.04474  -0.03610  -0.03086
  Beta virt. eigenvalues --   -0.02178  -0.01865  -0.01495  -0.00725  -0.00021
  Beta virt. eigenvalues --    0.00302   0.00469   0.00628   0.00984   0.01007

 Mulliken charges and spin densities:
               1          2
     1  Na   0.123445   0.484225
     2  Na  -0.033557   0.448960
     3  Na  -0.161376  -0.248356
     4  Na  -0.165757   0.278906
     5  Na   0.202795   0.003089
     6  Na  -0.306580   0.147193
     7  Na   0.341030  -0.114017
 Sum of Mulliken charges =  -0.00000   1.00000

 Dipole moment (field-independent basis, Debye):
    X=              0.2268    Y=             -0.0800    Z=              0.0539  Tot=              0.2464
 Quadrupole moment (field-independent basis, Debye-Ang):
   XX=            -54.4432   YY=            -71.6791   ZZ=            -68.7095
   XY=             -0.4467   XZ=              0.2502   YZ=             -1.7827

 Normal termination of Gaussian 16 at Mon Nov 13 16:53:37 2023.
