 Gaussian 16, Revision B.01,
 Gaussian 16:  ES64L-G16RevB.01 20-Dec-2017

 -------------------------
 #P B3LYP/6-311+g(d) force
 -------------------------

 ------------------------------
 Gaussian input prepared by ASE
 ------------------------------
 Symbolic Z-matrix:
 Charge =  0 Multiplicity = 2

                         Standard orientation:
 ---------------------------------------------------------------------
 Center     Atomic      Atomic             Coordinates (Angstroms)
 Number     Number       Type             X           Y           Z
 ---------------------------------------------------------------------
      1         11           0        2.698011    0.578703    1.280107
      2         11           0       -0.775151    3.003406   -0.444908
      3         11           0        4.389882   -0.350004   -1.016882
      4         11           0        1.799644   -1.729069   -0.404308
      5         11           0       -0.210252    0.250740    0.614876
      6         11           0       -2.682078   -1.452792    0.540385
      7         11           0       -5.220056   -0.300984   -0.569271
 ---------------------------------------------------------------------

 SCF Done:  E(UB3LYP) =  -1136.09514409     A.U. after   22 cycles

 The electronic state is 2-A.
 Alpha  occ. eigenvalues --  -38.45725 -38.44843 -38.44298 -38.44173 -38.43620
 Alpha  occ. eigenvalues --  -38.43392 -38.42935  -2.21690  -2.20839  -2.20211
 Alpha  occ. eigenvalues --   -2.19993  -2.19440  -2.19270  -2.19023  -1.15442
 Alpha  occ. eigenvalues --   -1.15377  -1.15288  -1.14544  -1.14490  -1.14480
 Alpha  occ. eigenvalues --   -1.13875  -1.13854  -1.13822  -1.13687  -1.13631
 Alpha  occ. eigenvalues --   -1.13597  -1.13183  -1.13077  -1.13073  -1.13013
 Alpha  occ. eigenvalues --   -1.12912  -1.12865  -1.12720  -1.12663  -1.12623
 Alpha  occ. eigenvalues --   -0.18430  -0.14385  -0.11669  -0.10996
 Alpha virt. eigenvalues --   -0.06921  -0.05334  -0.04429  -0.03381  -0.02955
 Alpha virt. eigenvalues --   -0.02190  -0.01873  -0.01250  -0.00782  -0.00547
 Alpha virt. eigenvalues --   -0.00136   0.00043   0.00418   0.00519   0.00644

  Beta  occ. eigenvalues --  -38.45717 -38.44804 -38.44271 -38.44114 -38.43578
  Beta  occ. eigenvalues --  -38.43389 -38.42902  -2.21679  -2.20773  -2.20161
  Beta  occ. eigenvalues --   -2.19882  -2.19361  -2.19271  -2.18974  -1.15422
  Beta  occ. eigenvalues --   -1.15348  -1.15290  -1.14502  -1.14445  -1.14408
  Beta  occ. eigenvalues --   -1.13835  -1.13821  -1.13789  -1.13615  -1.13555
  Beta  occ. eigenvalues --   -1.13522  -1.13135  -1.13029  -1.13024  -1.13001
  Beta  occ. eigenvalues --   -1.12918  -1.12829  -1.12686  -1.12640  -1.12526
  Beta  occ. eigenvalues --   -0.17820  -0.13964  -0.11244
  Beta virt. eigenvalues --   -0.07429  -0.06794  -0.04760  -0.04129  -0.03055
  Beta virt. eigenvalues --   -0.02794  -0.02029  -0.01399  -0.01003  -0.00545
  Beta virt. eigenvalues --   -0.00352   0.00011   0.00237   0.00494   0.00642

 Mulliken charges and spin densities:
               1          2
     1  Na   0.647769   0.341948
     2  Na   1.108525   0.298172
     3  Na   0.863058   0.333581
     4  Na   0.159641   0.058600
     5  Na  -3.411413   0.055763
     6  Na   0.768798  -0.256034
     7  Na  -0.136378   0.167970
 Sum of Mulliken charges =  -0.00000   1.00000

 Dipole moment (field-independent basis, Debye):
    X=              2.0029    Y=              0.5084    Z=             -0.4646  Tot=              2.1180
 Quadrupole moment (field-independent basis, Debye-Ang):
   XX=            -64.9873   YY=            -70.1042   ZZ=            -65.3460
   XY=             -4.3091   XZ=              2.7520   YZ=             -0.9086

 Normal termination of Gaussian 16 at Mon Nov 13 15:23:41 2023.
