 Gaussian 16, Revision B.01,
 Gaussian 16:  ES64L-G16RevB.01 20-Dec-2017

 -------------------------
 #P B3LYP/6-311+g(d) force
 -------------------------

 ------------------------------
 Gaussian input prepared by ASE
 ------------------------------
 Symbolic Z-matrix:
 Charge =  0 Multiplicity = 2

                         Standard orientation:
 ---------------------------------------------------------------------
 Center     Atomic      Atomic             Coordinates (Angstroms)
 Number     Number       Type             X           Y           Z
 ---------------------------------------------------------------------
      1         11           0       -2.078273    0.646447   -0.609203
      2         11           0        4.523088   -0.599389    0.882283
      3         11           0       -0.813079    2.786383    1.069919
      4         11           0        0.636326    1.712580   -1.319038
      5         11           0        1.820241   -0.885026   -0.382448
      6         11           0       -0.898251   -2.110754   -0.745148
      7         11           0       -3.190052   -1.550240    1.103634
 ---------------------------------------------------------------------

 SCF Done:  E(UB3LYP) =  -1136.10603280     A.U. after   20 cycles

 The electronic state is 2-A.
 Alpha  occ. eigenvalues --  -38.44178 -38.44169 -38.44124 -38.44080 -38.43928
 Alpha  occ. eigenvalues --  -38.43841 -38.42999  -2.20159  -2.20077  -2.20019
 Alpha  occ. eigenvalues --   -2.19987  -2.19959  -2.19829  -2.18977  -1.13987
 Alpha  occ. eigenvalues --   -1.13877  -1.13852  -1.13824  -1.13812  -1.13705
 Alpha  occ. eigenvalues --   -1.13696  -1.13674  -1.13641  -1.13635  -1.13621
 Alpha  occ. eigenvalues --   -1.13594  -1.13581  -1.13575  -1.13530  -1.13504
 Alpha  occ. eigenvalues --   -1.13439  -1.13404  -1.12656  -1.12654  -1.12600
 Alpha  occ. eigenvalues --   -0.18838  -0.13819  -0.12969  -0.10889
 Alpha virt. eigenvalues --   -0.06037  -0.05174  -0.04560  -0.03720  -0.02773
 Alpha virt. eigenvalues --   -0.02096  -0.01644  -0.00950  -0.00531  -0.00383
 Alpha virt. eigenvalues --   -0.00187   0.00253   0.00532   0.00578   0.00739

  Beta  occ. eigenvalues --  -38.44160 -38.44145 -38.44046 -38.44042 -38.43912
  Beta  occ. eigenvalues --  -38.43813 -38.42984  -2.20119  -2.20042  -2.19998
  Beta  occ. eigenvalues --   -2.19926  -2.19805  -2.19782  -2.18962  -1.13968
  Beta  occ. eigenvalues --   -1.13837  -1.13814  -1.13800  -1.13784  -1.13674
  Beta  occ. eigenvalues --   -1.13649  -1.13637  -1.13606  -1.13591  -1.13557
  Beta  occ. eigenvalues --   -1.13542  -1.13493  -1.13476  -1.13474  -1.13470
  Beta  occ. eigenvalues --   -1.13408  -1.13352  -1.12657  -1.12609  -1.12550
  Beta  occ. eigenvalues --   -0.18195  -0.13299  -0.12628
  Beta virt. eigenvalues --   -0.07385  -0.05672  -0.04901  -0.04301  -0.03302
  Beta virt. eigenvalues --   -0.02619  -0.01649  -0.01199  -0.00872  -0.00256
  Beta virt. eigenvalues --   -0.00113   0.00075   0.00386   0.00637   0.00662

 Mulliken charges and spin densities:
               1          2
     1  Na  -0.562046   0.599313
     2  Na   0.097189   0.222166
     3  Na  -0.020725  -0.096802
     4  Na   0.565596   0.036740
     5  Na  -1.440735   0.494348
     6  Na   0.951340  -0.288538
     7  Na   0.409381   0.032773
 Sum of Mulliken charges =  -0.00000   1.00000

 Dipole moment (field-independent basis, Debye):
    X=             -0.6277    Y=              0.5023    Z=              0.4670  Tot=              0.9297
 Quadrupole moment (field-independent basis, Debye-Ang):
   XX=            -66.1603   YY=            -67.1221   ZZ=            -65.6101
   XY=              3.9423   XZ=             -0.5335   YZ=             -0.1147

 Normal termination of Gaussian 16 at Mon Nov 13 15:28:30 2023.
