 Gaussian 16, Revision B.01,
 Gaussian 16:  ES64L-G16RevB.01 20-Dec-2017

 -------------------------
 #P B3LYP/6-311+g(d) force
 -------------------------

 ------------------------------
 Gaussian input prepared by ASE
 ------------------------------
 Symbolic Z-matrix:
 Charge =  0 Multiplicity = 2

                         Standard orientation:
 ---------------------------------------------------------------------
 Center     Atomic      Atomic             Coordinates (Angstroms)
 Number     Number       Type             X           Y           Z
 ---------------------------------------------------------------------
      1         11           0        0.609444    1.547949   -0.002478
      2         11           0       -0.105065   -0.023199   -1.931495
      3         11           0        2.761657    0.014370   -0.001114
      4         11           0       -0.115618   -0.007014    1.933335
      5         11           0       -1.924575   -1.225642   -0.000952
      6         11           0       -1.865670    1.256867   -0.008630
      7         11           0        0.639827   -1.563332    0.011334
 ---------------------------------------------------------------------

 SCF Done:  E(UB3LYP) =  -1136.00846440     A.U. after   30 cycles

 The electronic state is 2-A.
 Alpha  occ. eigenvalues --  -38.45906 -38.45720 -38.45538 -38.45328 -38.44649
 Alpha  occ. eigenvalues --  -38.43208 -38.43199  -2.22449  -2.22229  -2.21882
 Alpha  occ. eigenvalues --   -2.21598  -2.20731  -2.19506  -2.19494  -1.16675
 Alpha  occ. eigenvalues --   -1.16309  -1.16270  -1.16084  -1.16061  -1.15891
 Alpha  occ. eigenvalues --   -1.15874  -1.15360  -1.15329  -1.15167  -1.15052
 Alpha  occ. eigenvalues --   -1.14891  -1.14405  -1.14392  -1.14214  -1.13242
 Alpha  occ. eigenvalues --   -1.13232  -1.13187  -1.13139  -1.12981  -1.12968
 Alpha  occ. eigenvalues --   -0.22717  -0.14252  -0.13620  -0.12311
 Alpha virt. eigenvalues --   -0.05563  -0.04305  -0.04242  -0.03531  -0.03164
 Alpha virt. eigenvalues --   -0.02497  -0.01220  -0.00328  -0.00110   0.00278
 Alpha virt. eigenvalues --    0.00770   0.00960   0.01066   0.01206   0.01361

  Beta  occ. eigenvalues --  -38.45814 -38.45630 -38.45484 -38.45278 -38.44643
  Beta  occ. eigenvalues --  -38.43190 -38.43181  -2.22288  -2.22071  -2.21789
  Beta  occ. eigenvalues --   -2.21510  -2.20723  -2.19483  -2.19471  -1.16547
  Beta  occ. eigenvalues --   -1.16211  -1.16144  -1.15989  -1.15967  -1.15776
  Beta  occ. eigenvalues --   -1.15766  -1.15271  -1.15269  -1.15081  -1.14994
  Beta  occ. eigenvalues --   -1.14819  -1.14386  -1.14361  -1.14215  -1.13236
  Beta  occ. eigenvalues --   -1.13226  -1.13094  -1.13046  -1.12976  -1.12963
  Beta  occ. eigenvalues --   -0.21918  -0.14062  -0.11902
  Beta virt. eigenvalues --   -0.09045  -0.05538  -0.03508  -0.03487  -0.03314
  Beta virt. eigenvalues --   -0.02198  -0.02038  -0.01212  -0.00097  -0.00089
  Beta virt. eigenvalues --    0.00304   0.00821   0.01131   0.01155   0.01260

 Mulliken charges and spin densities:
               1          2
     1  Na  -0.645525   0.329486
     2  Na   0.430557   0.165268
     3  Na   0.000792  -0.023971
     4  Na   0.432993   0.163477
     5  Na   0.288867  -0.013843
     6  Na   0.197294   0.011478
     7  Na  -0.704977   0.368104
 Sum of Mulliken charges =  -0.00000   1.00000

 Dipole moment (field-independent basis, Debye):
    X=              0.2491    Y=             -0.0815    Z=             -0.0009  Tot=              0.2621
 Quadrupole moment (field-independent basis, Debye-Ang):
   XX=            -58.4176   YY=            -63.7145   ZZ=            -76.6090
   XY=              0.1673   XZ=             -0.0013   YZ=              0.0439

 Normal termination of Gaussian 16 at Mon Nov 13 20:25:01 2023.
