 Gaussian 16, Revision B.01,
 Gaussian 16:  ES64L-G16RevB.01 20-Dec-2017

 -------------------------
 #P B3LYP/6-311+g(d) force
 -------------------------

 ------------------------------
 Gaussian input prepared by ASE
 ------------------------------
 Symbolic Z-matrix:
 Charge =  0 Multiplicity = 2

                         Standard orientation:
 ---------------------------------------------------------------------
 Center     Atomic      Atomic             Coordinates (Angstroms)
 Number     Number       Type             X           Y           Z
 ---------------------------------------------------------------------
      1         11           0       -0.780899   -1.325643    1.400857
      2         11           0        3.273336   -2.183120   -0.266067
      3         11           0        2.902730    2.400570    0.424448
      4         11           0        1.247487    0.026069   -0.360865
      5         11           0       -1.236761    1.274334   -1.503085
      6         11           0       -2.777536   -1.213400   -0.837262
      7         11           0       -2.628357    1.021189    1.141973
 ---------------------------------------------------------------------

 SCF Done:  E(UB3LYP) =  -1136.09142529     A.U. after   30 cycles

 The electronic state is 2-A.
 Alpha  occ. eigenvalues --  -38.44978 -38.44877 -38.44755 -38.44712 -38.43895
 Alpha  occ. eigenvalues --  -38.43744 -38.43002  -2.20974  -2.20876  -2.20548
 Alpha  occ. eigenvalues --   -2.20502  -2.19881  -2.19741  -2.19080  -1.14772
 Alpha  occ. eigenvalues --   -1.14636  -1.14633  -1.14550  -1.14520  -1.14446
 Alpha  occ. eigenvalues --   -1.14254  -1.14204  -1.14192  -1.14166  -1.14149
 Alpha  occ. eigenvalues --   -1.14119  -1.13604  -1.13530  -1.13481  -1.13462
 Alpha  occ. eigenvalues --   -1.13396  -1.13335  -1.12784  -1.12747  -1.12671
 Alpha  occ. eigenvalues --   -0.19330  -0.14240  -0.11356  -0.10770
 Alpha virt. eigenvalues --   -0.06828  -0.06568  -0.03574  -0.03117  -0.02682
 Alpha virt. eigenvalues --   -0.02148  -0.01882  -0.01650  -0.00362  -0.00247
 Alpha virt. eigenvalues --    0.00096   0.00132   0.00332   0.00533   0.00596

  Beta  occ. eigenvalues --  -38.44949 -38.44832 -38.44742 -38.44692 -38.43855
  Beta  occ. eigenvalues --  -38.43697 -38.42991  -2.20926  -2.20799  -2.20524
  Beta  occ. eigenvalues --   -2.20465  -2.19813  -2.19658  -2.19065  -1.14742
  Beta  occ. eigenvalues --   -1.14606  -1.14553  -1.14495  -1.14439  -1.14399
  Beta  occ. eigenvalues --   -1.14237  -1.14180  -1.14175  -1.14151  -1.14121
  Beta  occ. eigenvalues --   -1.14094  -1.13564  -1.13489  -1.13409  -1.13399
  Beta  occ. eigenvalues --   -1.13347  -1.13246  -1.12779  -1.12710  -1.12651
  Beta  occ. eigenvalues --   -0.18648  -0.13979  -0.11022
  Beta virt. eigenvalues --   -0.06987  -0.06618  -0.06262  -0.03157  -0.02954
  Beta virt. eigenvalues --   -0.02521  -0.01691  -0.01490  -0.01010  -0.00211
  Beta virt. eigenvalues --   -0.00047   0.00135   0.00153   0.00503   0.00559

 Mulliken charges and spin densities:
               1          2
     1  Na   0.365400   0.314179
     2  Na   0.498665  -0.134773
     3  Na   0.820064  -0.023528
     4  Na  -3.194992   0.267253
     5  Na   0.941260   0.457623
     6  Na   0.279514   0.028498
     7  Na   0.290089   0.090748
 Sum of Mulliken charges =  -0.00000   1.00000

 Dipole moment (field-independent basis, Debye):
    X=             -0.0357    Y=             -0.0269    Z=              0.2002  Tot=              0.2052
 Quadrupole moment (field-independent basis, Debye-Ang):
   XX=            -48.8374   YY=            -69.1698   ZZ=            -73.5883
   XY=             -0.1454   XZ=              1.1078   YZ=              4.0694

 Normal termination of Gaussian 16 at Mon Nov 13 17:17:15 2023.
