 Gaussian 16, Revision B.01,
 Gaussian 16:  ES64L-G16RevB.01 20-Dec-2017

 -------------------------
 #P B3LYP/6-311+g(d) force
 -------------------------

 ------------------------------
 Gaussian input prepared by ASE
 ------------------------------
 Symbolic Z-matrix:
 Charge =  0 Multiplicity = 2

                         Standard orientation:
 ---------------------------------------------------------------------
 Center     Atomic      Atomic             Coordinates (Angstroms)
 Number     Number       Type             X           Y           Z
 ---------------------------------------------------------------------
      1         11           0       -0.652870    2.104793    1.025418
      2         11           0        3.505860   -1.523157   -0.479659
      3         11           0        3.107311    1.370968   -1.118345
      4         11           0        1.598894    0.118479    1.150952
      5         11           0       -0.572859   -1.930502    0.794689
      6         11           0       -2.016753    0.155829   -0.806815
      7         11           0       -4.969583   -0.296410   -0.566240
 ---------------------------------------------------------------------

 SCF Done:  E(UB3LYP) =  -1136.10058912     A.U. after   26 cycles

 The electronic state is 2-A.
 Alpha  occ. eigenvalues --  -38.45386 -38.44933 -38.43800 -38.43698 -38.43659
 Alpha  occ. eigenvalues --  -38.43556 -38.43167  -2.21296  -2.20842  -2.19705
 Alpha  occ. eigenvalues --   -2.19670  -2.19646  -2.19514  -2.19084  -1.14985
 Alpha  occ. eigenvalues --   -1.14952  -1.14882  -1.14560  -1.14482  -1.14447
 Alpha  occ. eigenvalues --   -1.13502  -1.13398  -1.13395  -1.13360  -1.13353
 Alpha  occ. eigenvalues --   -1.13332  -1.13316  -1.13311  -1.13235  -1.13153
 Alpha  occ. eigenvalues --   -1.13149  -1.13099  -1.12756  -1.12714  -1.12692
 Alpha  occ. eigenvalues --   -0.18663  -0.14538  -0.11875  -0.11137
 Alpha virt. eigenvalues --   -0.06245  -0.05414  -0.04384  -0.03554  -0.02972
 Alpha virt. eigenvalues --   -0.02503  -0.01708  -0.01037  -0.00629  -0.00356
 Alpha virt. eigenvalues --   -0.00109   0.00019   0.00464   0.00503   0.00692

  Beta  occ. eigenvalues --  -38.45290 -38.44881 -38.43800 -38.43671 -38.43652
  Beta  occ. eigenvalues --  -38.43532 -38.43154  -2.21120  -2.20744  -2.19708
  Beta  occ. eigenvalues --   -2.19639  -2.19634  -2.19464  -2.19061  -1.14870
  Beta  occ. eigenvalues --   -1.14822  -1.14759  -1.14499  -1.14414  -1.14375
  Beta  occ. eigenvalues --   -1.13504  -1.13362  -1.13359  -1.13341  -1.13317
  Beta  occ. eigenvalues --   -1.13308  -1.13304  -1.13280  -1.13230  -1.13119
  Beta  occ. eigenvalues --   -1.13113  -1.13074  -1.12740  -1.12701  -1.12669
  Beta  occ. eigenvalues --   -0.17898  -0.14204  -0.10916
  Beta virt. eigenvalues --   -0.08080  -0.05964  -0.04934  -0.04058  -0.03003
  Beta virt. eigenvalues --   -0.02765  -0.01927  -0.01513  -0.00934  -0.00315
  Beta virt. eigenvalues --   -0.00187   0.00031   0.00158   0.00504   0.00651

 Mulliken charges and spin densities:
               1          2
     1  Na  -0.035466   0.192945
     2  Na  -0.190299  -0.033517
     3  Na  -0.368952   0.190652
     4  Na   1.226679   0.181978
     5  Na  -0.060417   0.376590
     6  Na  -0.868426  -0.021414
     7  Na   0.296882   0.112765
 Sum of Mulliken charges =  -0.00000   1.00000

 Dipole moment (field-independent basis, Debye):
    X=              0.7596    Y=              0.1780    Z=              0.1567  Tot=              0.7957
 Quadrupole moment (field-independent basis, Debye-Ang):
   XX=            -66.7392   YY=            -65.7305   ZZ=            -69.2805
   XY=             -0.6313   XZ=             -4.2254   YZ=             -3.5220

 Normal termination of Gaussian 16 at Mon Nov 13 15:31:13 2023.
