 Gaussian 16, Revision B.01,
 Gaussian 16:  ES64L-G16RevB.01 20-Dec-2017

 -------------------------
 #P B3LYP/6-311+g(d) force
 -------------------------

 ------------------------------
 Gaussian input prepared by ASE
 ------------------------------
 Symbolic Z-matrix:
 Charge =  0 Multiplicity = 2

                         Standard orientation:
 ---------------------------------------------------------------------
 Center     Atomic      Atomic             Coordinates (Angstroms)
 Number     Number       Type             X           Y           Z
 ---------------------------------------------------------------------
      1         11           0       -1.324121    0.143768    1.242775
      2         11           0        4.445541   -0.408985    0.270849
      3         11           0        2.859261    1.878728   -0.848951
      4         11           0        1.449036   -0.511052    0.290759
      5         11           0       -0.815846   -2.409063   -0.242369
      6         11           0       -3.210572   -0.733567   -0.918087
      7         11           0       -3.403299    2.040170    0.205024
 ---------------------------------------------------------------------

 SCF Done:  E(UB3LYP) =  -1136.09615580     A.U. after   22 cycles

 The electronic state is 2-A.
 Alpha  occ. eigenvalues --  -38.45815 -38.45302 -38.43517 -38.43246 -38.43207
 Alpha  occ. eigenvalues --  -38.42837 -38.42522  -2.21685  -2.21204  -2.19523
 Alpha  occ. eigenvalues --   -2.19358  -2.19313  -2.18741  -2.18521  -1.15405
 Alpha  occ. eigenvalues --   -1.15355  -1.15320  -1.14891  -1.14821  -1.14810
 Alpha  occ. eigenvalues --   -1.13311  -1.13202  -1.13166  -1.13143  -1.13021
 Alpha  occ. eigenvalues --   -1.12992  -1.12969  -1.12950  -1.12889  -1.12408
 Alpha  occ. eigenvalues --   -1.12388  -1.12361  -1.12198  -1.12158  -1.12141
 Alpha  occ. eigenvalues --   -0.18381  -0.15635  -0.11517  -0.10325
 Alpha virt. eigenvalues --   -0.06951  -0.05218  -0.04140  -0.03529  -0.03187
 Alpha virt. eigenvalues --   -0.02085  -0.01583  -0.01094  -0.00496  -0.00325
 Alpha virt. eigenvalues --   -0.00202   0.00106   0.00529   0.00549   0.00648

  Beta  occ. eigenvalues --  -38.45821 -38.45265 -38.43453 -38.43196 -38.43175
  Beta  occ. eigenvalues --  -38.42829 -38.42500  -2.21699  -2.21134  -2.19407
  Beta  occ. eigenvalues --   -2.19275  -2.19257  -2.18728  -2.18486  -1.15418
  Beta  occ. eigenvalues --   -1.15353  -1.15313  -1.14844  -1.14772  -1.14768
  Beta  occ. eigenvalues --   -1.13239  -1.13113  -1.13083  -1.13066  -1.12962
  Beta  occ. eigenvalues --   -1.12933  -1.12927  -1.12911  -1.12810  -1.12399
  Beta  occ. eigenvalues --   -1.12368  -1.12343  -1.12175  -1.12133  -1.12086
  Beta  occ. eigenvalues --   -0.17742  -0.15229  -0.11327
  Beta virt. eigenvalues --   -0.06796  -0.06412  -0.05070  -0.03723  -0.03317
  Beta virt. eigenvalues --   -0.02898  -0.01622  -0.01287  -0.00622  -0.00406
  Beta virt. eigenvalues --   -0.00175   0.00011   0.00233   0.00623   0.00635

 Mulliken charges and spin densities:
               1          2
     1  Na  -0.363964   0.553543
     2  Na  -0.041299   0.259631
     3  Na   0.549230   0.010160
     4  Na  -1.681983  -0.275425
     5  Na   0.745910   0.204574
     6  Na   0.093564   0.277003
     7  Na   0.698542  -0.029486
 Sum of Mulliken charges =  -0.00000   1.00000

 Dipole moment (field-independent basis, Debye):
    X=              2.6807    Y=              0.7649    Z=             -0.3683  Tot=              2.8119
 Quadrupole moment (field-independent basis, Debye-Ang):
   XX=            -64.3824   YY=            -66.3874   ZZ=            -68.3814
   XY=             -1.5074   XZ=              1.3015   YZ=             -4.1612

 Normal termination of Gaussian 16 at Mon Nov 13 15:43:38 2023.
