 Gaussian 16, Revision B.01,
 Gaussian 16:  ES64L-G16RevB.01 20-Dec-2017

 -------------------------
 #P B3LYP/6-311+g(d) force
 -------------------------

 ------------------------------
 Gaussian input prepared by ASE
 ------------------------------
 Symbolic Z-matrix:
 Charge =  0 Multiplicity = 2

                         Standard orientation:
 ---------------------------------------------------------------------
 Center     Atomic      Atomic             Coordinates (Angstroms)
 Number     Number       Type             X           Y           Z
 ---------------------------------------------------------------------
      1         11           0       -0.166332   -0.123428   -1.460030
      2         11           0       -0.179527   -2.469223    0.196548
      3         11           0       -2.610907   -0.588359    0.007515
      4         11           0       -1.351810    2.204181   -0.197030
      5         11           0        0.197364   -0.023445    1.726680
      6         11           0        1.687825    1.957368    0.179232
      7         11           0        2.423387   -0.957093   -0.452915
 ---------------------------------------------------------------------

 SCF Done:  E(UB3LYP) =  -1136.10809334     A.U. after   19 cycles

 The electronic state is 2-A.
 Alpha  occ. eigenvalues --  -38.43516 -38.43497 -38.43393 -38.43366 -38.43355
 Alpha  occ. eigenvalues --  -38.43330 -38.43313  -2.19631  -2.19565  -2.19539
 Alpha  occ. eigenvalues --   -2.19527  -2.19409  -2.19395  -2.19374  -1.13565
 Alpha  occ. eigenvalues --   -1.13548  -1.13439  -1.13359  -1.13283  -1.13247
 Alpha  occ. eigenvalues --   -1.13237  -1.13211  -1.13163  -1.13151  -1.13106
 Alpha  occ. eigenvalues --   -1.13079  -1.13068  -1.13024  -1.13019  -1.13001
 Alpha  occ. eigenvalues --   -1.12982  -1.12958  -1.12953  -1.12946  -1.12905
 Alpha  occ. eigenvalues --   -0.20907  -0.13534  -0.13272  -0.11426
 Alpha virt. eigenvalues --   -0.04957  -0.04647  -0.04557  -0.03232  -0.03106
 Alpha virt. eigenvalues --   -0.02363  -0.01062  -0.00847   0.00007   0.00350
 Alpha virt. eigenvalues --    0.00488   0.00530   0.01011   0.01070   0.01081

  Beta  occ. eigenvalues --  -38.43508 -38.43480 -38.43354 -38.43345 -38.43315
  Beta  occ. eigenvalues --  -38.43303 -38.43237  -2.19539  -2.19514  -2.19476
  Beta  occ. eigenvalues --   -2.19412  -2.19389  -2.19369  -2.19360  -1.13512
  Beta  occ. eigenvalues --   -1.13486  -1.13380  -1.13271  -1.13240  -1.13222
  Beta  occ. eigenvalues --   -1.13199  -1.13165  -1.13127  -1.13094  -1.13053
  Beta  occ. eigenvalues --   -1.13026  -1.13019  -1.12983  -1.12972  -1.12955
  Beta  occ. eigenvalues --   -1.12941  -1.12938  -1.12904  -1.12897  -1.12878
  Beta  occ. eigenvalues --   -0.20145  -0.13200  -0.12930
  Beta virt. eigenvalues --   -0.07312  -0.04973  -0.04625  -0.04555  -0.02347
  Beta virt. eigenvalues --   -0.02209  -0.01272  -0.00990  -0.00789   0.00135
  Beta virt. eigenvalues --    0.00376   0.00447   0.00484   0.01049   0.01068

 Mulliken charges and spin densities:
               1          2
     1  Na  -1.015668   0.309802
     2  Na   0.539468   0.074967
     3  Na   0.244329   0.001983
     4  Na   0.230830  -0.004801
     5  Na  -0.659602   0.547264
     6  Na   0.386048   0.045237
     7  Na   0.274594   0.025547
 Sum of Mulliken charges =  -0.00000   1.00000

 Dipole moment (field-independent basis, Debye):
    X=              0.0042    Y=              0.0800    Z=              0.2139  Tot=              0.2284
 Quadrupole moment (field-independent basis, Debye-Ang):
   XX=            -59.7871   YY=            -62.9389   ZZ=            -72.3480
   XY=              0.0177   XZ=             -0.8457   YZ=             -0.1664

 Normal termination of Gaussian 16 at Mon Nov 13 19:06:16 2023.
