 Gaussian 16, Revision B.01,
 Gaussian 16:  ES64L-G16RevB.01 20-Dec-2017

 -------------------------
 #P B3LYP/6-311+g(d) force
 -------------------------

 ------------------------------
 Gaussian input prepared by ASE
 ------------------------------
 Symbolic Z-matrix:
 Charge =  0 Multiplicity = 2

                         Standard orientation:
 ---------------------------------------------------------------------
 Center     Atomic      Atomic             Coordinates (Angstroms)
 Number     Number       Type             X           Y           Z
 ---------------------------------------------------------------------
      1         11           0        0.503684   -2.040157    0.215475
      2         11           0       -0.016154   -0.044665   -1.634309
      3         11           0       -4.195683   -0.063977   -0.196055
      4         11           0       -1.469192    0.328301    0.683967
      5         11           0        1.292545    0.090646    1.815967
      6         11           0        0.999479    2.050838   -0.134571
      7         11           0        2.885320   -0.320987   -0.750473
 ---------------------------------------------------------------------

 SCF Done:  E(UB3LYP) =  -1136.07263185     A.U. after   29 cycles

 The electronic state is 2-A.
 Alpha  occ. eigenvalues --  -38.46138 -38.44963 -38.44923 -38.44393 -38.43418
 Alpha  occ. eigenvalues --  -38.42561 -38.42348  -2.21927  -2.21172  -2.20962
 Alpha  occ. eigenvalues --   -2.20592  -2.19591  -2.18680  -2.18474  -1.15652
 Alpha  occ. eigenvalues --   -1.15560  -1.15552  -1.14987  -1.14858  -1.14833
 Alpha  occ. eigenvalues --   -1.14681  -1.14588  -1.14546  -1.14333  -1.14243
 Alpha  occ. eigenvalues --   -1.14193  -1.13348  -1.13246  -1.13134  -1.12404
 Alpha  occ. eigenvalues --   -1.12344  -1.12233  -1.12190  -1.12135  -1.12051
 Alpha  occ. eigenvalues --   -0.21031  -0.14000  -0.12170  -0.11468
 Alpha virt. eigenvalues --   -0.07638  -0.03799  -0.03474  -0.03305  -0.02824
 Alpha virt. eigenvalues --   -0.02407  -0.02320  -0.00868  -0.00414  -0.00012
 Alpha virt. eigenvalues --    0.00314   0.00377   0.00430   0.00834   0.01086

  Beta  occ. eigenvalues --  -38.46147 -38.44890 -38.44888 -38.44298 -38.43387
  Beta  occ. eigenvalues --  -38.42539 -38.42333  -2.21943  -2.21038  -2.20905
  Beta  occ. eigenvalues --   -2.20420  -2.19542  -2.18650  -2.18456  -1.15664
  Beta  occ. eigenvalues --   -1.15570  -1.15561  -1.14905  -1.14761  -1.14737
  Beta  occ. eigenvalues --   -1.14627  -1.14512  -1.14507  -1.14217  -1.14115
  Beta  occ. eigenvalues --   -1.14072  -1.13325  -1.13151  -1.13109  -1.12392
  Beta  occ. eigenvalues --   -1.12271  -1.12205  -1.12187  -1.12086  -1.12016
  Beta  occ. eigenvalues --   -0.20139  -0.13851  -0.11100
  Beta virt. eigenvalues --   -0.07803  -0.07515  -0.03379  -0.03238  -0.03133
  Beta virt. eigenvalues --   -0.02577  -0.01581  -0.01513  -0.00573  -0.00344
  Beta virt. eigenvalues --    0.00031   0.00344   0.00404   0.00535   0.00896

 Mulliken charges and spin densities:
               1          2
     1  Na  -0.979271  -0.115518
     2  Na   0.430243   0.711384
     3  Na   0.412271  -0.026757
     4  Na  -0.004046   0.284338
     5  Na   0.807215   0.151700
     6  Na  -0.924461  -0.050358
     7  Na   0.258049   0.045211
 Sum of Mulliken charges =  -0.00000   1.00000

 Dipole moment (field-independent basis, Debye):
    X=             -0.9225    Y=             -0.1447    Z=             -0.2384  Tot=              0.9638
 Quadrupole moment (field-independent basis, Debye-Ang):
   XX=            -42.8312   YY=            -79.2303   ZZ=            -68.0218
   XY=              0.7835   XZ=              0.9634   YZ=              0.1657

 Normal termination of Gaussian 16 at Mon Nov 13 19:08:38 2023.
