 Gaussian 16, Revision B.01,
 Gaussian 16:  ES64L-G16RevB.01 20-Dec-2017

 -------------------------
 #P B3LYP/6-311+g(d) force
 -------------------------

 ------------------------------
 Gaussian input prepared by ASE
 ------------------------------
 Symbolic Z-matrix:
 Charge =  0 Multiplicity = 2

                         Standard orientation:
 ---------------------------------------------------------------------
 Center     Atomic      Atomic             Coordinates (Angstroms)
 Number     Number       Type             X           Y           Z
 ---------------------------------------------------------------------
      1         11           0        0.060239    1.963565    1.573993
      2         11           0        0.643666   -1.742436   -0.686389
      3         11           0        3.418292   -1.814473    0.441989
      4         11           0        2.153543    0.815520   -0.246148
      5         11           0       -0.269922    2.175574   -1.389723
      6         11           0       -1.673780   -0.006946    0.119600
      7         11           0       -4.332038   -1.390803    0.186679
 ---------------------------------------------------------------------

 SCF Done:  E(UB3LYP) =  -1136.09929436     A.U. after   24 cycles

 The electronic state is 2-A.
 Alpha  occ. eigenvalues --  -38.44557 -38.44447 -38.44235 -38.44016 -38.43954
 Alpha  occ. eigenvalues --  -38.43789 -38.43126  -2.20415  -2.20348  -2.20137
 Alpha  occ. eigenvalues --   -2.20113  -2.19969  -2.19796  -2.19200  -1.14171
 Alpha  occ. eigenvalues --   -1.14145  -1.14048  -1.14047  -1.13993  -1.13984
 Alpha  occ. eigenvalues --   -1.13950  -1.13835  -1.13794  -1.13753  -1.13742
 Alpha  occ. eigenvalues --   -1.13714  -1.13698  -1.13596  -1.13554  -1.13479
 Alpha  occ. eigenvalues --   -1.13406  -1.13344  -1.12894  -1.12844  -1.12809
 Alpha  occ. eigenvalues --   -0.19535  -0.13871  -0.12548  -0.10553
 Alpha virt. eigenvalues --   -0.06951  -0.05532  -0.03977  -0.03170  -0.02640
 Alpha virt. eigenvalues --   -0.02279  -0.01840  -0.01421  -0.00476  -0.00255
 Alpha virt. eigenvalues --    0.00031   0.00239   0.00597   0.00682   0.00800

  Beta  occ. eigenvalues --  -38.44559 -38.44418 -38.44227 -38.43991 -38.43910
  Beta  occ. eigenvalues --  -38.43726 -38.43106  -2.20366  -2.20351  -2.20120
  Beta  occ. eigenvalues --   -2.20077  -2.19891  -2.19679  -2.19170  -1.14144
  Beta  occ. eigenvalues --   -1.14116  -1.14051  -1.13994  -1.13988  -1.13986
  Beta  occ. eigenvalues --   -1.13924  -1.13805  -1.13745  -1.13728  -1.13705
  Beta  occ. eigenvalues --   -1.13687  -1.13652  -1.13529  -1.13488  -1.13401
  Beta  occ. eigenvalues --   -1.13327  -1.13265  -1.12877  -1.12803  -1.12759
  Beta  occ. eigenvalues --   -0.18750  -0.13685  -0.12401
  Beta virt. eigenvalues --   -0.06873  -0.06404  -0.05319  -0.03757  -0.02700
  Beta virt. eigenvalues --   -0.02382  -0.01978  -0.01520  -0.00844  -0.00428
  Beta virt. eigenvalues --    0.00042   0.00137   0.00312   0.00723   0.00823

 Mulliken charges and spin densities:
               1          2
     1  Na   1.819150   0.275049
     2  Na   0.347933   0.016825
     3  Na  -0.331792   0.028297
     4  Na   0.860635   0.525440
     5  Na   1.138639   0.509236
     6  Na  -2.052931  -0.047607
     7  Na  -1.781634  -0.307240
 Sum of Mulliken charges =  -0.00000   1.00000

 Dipole moment (field-independent basis, Debye):
    X=              0.3728    Y=             -0.0976    Z=             -0.3727  Tot=              0.5361
 Quadrupole moment (field-independent basis, Debye-Ang):
   XX=            -54.3827   YY=            -64.7488   ZZ=            -73.0980
   XY=             -1.1523   XZ=              1.3880   YZ=             -2.7980

 Normal termination of Gaussian 16 at Mon Nov 13 16:36:29 2023.
