 Gaussian 16, Revision B.01,
 Gaussian 16:  ES64L-G16RevB.01 20-Dec-2017

 -------------------------
 #P B3LYP/6-311+g(d) force
 -------------------------

 ------------------------------
 Gaussian input prepared by ASE
 ------------------------------
 Symbolic Z-matrix:
 Charge =  0 Multiplicity = 2

                         Standard orientation:
 ---------------------------------------------------------------------
 Center     Atomic      Atomic             Coordinates (Angstroms)
 Number     Number       Type             X           Y           Z
 ---------------------------------------------------------------------
      1         11           0       -1.283759   -1.638709    0.147964
      2         11           0        0.734186   -1.853511   -2.053708
      3         11           0       -3.383416    0.490417   -0.128709
      4         11           0       -1.197904    2.531280   -0.386997
      5         11           0        0.396033   -0.966154    2.538475
      6         11           0        0.901523    0.401119   -0.082533
      7         11           0        3.833337    1.035558   -0.034492
 ---------------------------------------------------------------------

 SCF Done:  E(UB3LYP) =  -1136.09818745     A.U. after   23 cycles

 The electronic state is 2-A.
 Alpha  occ. eigenvalues --  -38.44943 -38.44726 -38.44575 -38.44479 -38.43725
 Alpha  occ. eigenvalues --  -38.42928 -38.42856  -2.20854  -2.20510  -2.20483
 Alpha  occ. eigenvalues --   -2.20360  -2.19600  -2.19032  -2.19000  -1.14566
 Alpha  occ. eigenvalues --   -1.14468  -1.14434  -1.14210  -1.14202  -1.14155
 Alpha  occ. eigenvalues --   -1.14148  -1.14104  -1.14072  -1.14061  -1.14035
 Alpha  occ. eigenvalues --   -1.13988  -1.13336  -1.13233  -1.13219  -1.12824
 Alpha  occ. eigenvalues --   -1.12746  -1.12677  -1.12663  -1.12618  -1.12559
 Alpha  occ. eigenvalues --   -0.19038  -0.13150  -0.11972  -0.11854
 Alpha virt. eigenvalues --   -0.06652  -0.04725  -0.03646  -0.03293  -0.03072
 Alpha virt. eigenvalues --   -0.02840  -0.02242  -0.00637  -0.00502   0.00100
 Alpha virt. eigenvalues --    0.00145   0.00270   0.00544   0.00830   0.01008

  Beta  occ. eigenvalues --  -38.44833 -38.44734 -38.44487 -38.44478 -38.43726
  Beta  occ. eigenvalues --  -38.42913 -38.42831  -2.20651  -2.20525  -2.20359
  Beta  occ. eigenvalues --   -2.20321  -2.19602  -2.18999  -2.18980  -1.14430
  Beta  occ. eigenvalues --   -1.14325  -1.14295  -1.14220  -1.14161  -1.14159
  Beta  occ. eigenvalues --   -1.14094  -1.14065  -1.14035  -1.13990  -1.13979
  Beta  occ. eigenvalues --   -1.13961  -1.13337  -1.13227  -1.13221  -1.12822
  Beta  occ. eigenvalues --   -1.12651  -1.12638  -1.12613  -1.12583  -1.12552
  Beta  occ. eigenvalues --   -0.18214  -0.12995  -0.11601
  Beta virt. eigenvalues --   -0.07818  -0.06615  -0.04324  -0.03479  -0.02674
  Beta virt. eigenvalues --   -0.02413  -0.02221  -0.02127  -0.00568  -0.00199
  Beta virt. eigenvalues --    0.00114   0.00179   0.00338   0.00729   0.00897

 Mulliken charges and spin densities:
               1          2
     1  Na   0.088954   0.060452
     2  Na   0.245045   0.503561
     3  Na   1.469250  -0.000137
     4  Na  -0.455440  -0.089986
     5  Na   0.108519   0.561064
     6  Na  -1.254441   0.093455
     7  Na  -0.201888  -0.128409
 Sum of Mulliken charges =  -0.00000   1.00000

 Dipole moment (field-independent basis, Debye):
    X=              0.3612    Y=             -0.3759    Z=              0.1578  Tot=              0.5447
 Quadrupole moment (field-independent basis, Debye-Ang):
   XX=            -54.5855   YY=            -72.7853   ZZ=            -65.2592
   XY=              0.9800   XZ=             -0.3648   YZ=              1.2441

 Normal termination of Gaussian 16 at Mon Nov 13 18:34:04 2023.
