 Gaussian 16, Revision B.01,
 Gaussian 16:  ES64L-G16RevB.01 20-Dec-2017

 -------------------------
 #P B3LYP/6-311+g(d) force
 -------------------------

 ------------------------------
 Gaussian input prepared by ASE
 ------------------------------
 Symbolic Z-matrix:
 Charge =  0 Multiplicity = 2

                         Standard orientation:
 ---------------------------------------------------------------------
 Center     Atomic      Atomic             Coordinates (Angstroms)
 Number     Number       Type             X           Y           Z
 ---------------------------------------------------------------------
      1         11           0        0.218149   -1.015774   -1.011224
      2         11           0       -0.733889   -0.420960    1.764978
      3         11           0       -2.488000   -1.943008   -0.127234
      4         11           0       -1.985454    0.976477   -0.579397
      5         11           0        0.118275    3.114804   -0.388497
      6         11           0        1.774944    0.869244    0.728194
      7         11           0        3.095975   -1.580783   -0.386819
 ---------------------------------------------------------------------

 SCF Done:  E(UB3LYP) =  -1136.10615965     A.U. after   22 cycles

 The electronic state is 2-A.
 Alpha  occ. eigenvalues --  -38.44042 -38.43950 -38.43773 -38.43643 -38.43461
 Alpha  occ. eigenvalues --  -38.43388 -38.43373  -2.20034  -2.19872  -2.19844
 Alpha  occ. eigenvalues --   -2.19731  -2.19560  -2.19456  -2.19361  -1.13869
 Alpha  occ. eigenvalues --   -1.13711  -1.13701  -1.13671  -1.13603  -1.13536
 Alpha  occ. eigenvalues --   -1.13531  -1.13460  -1.13452  -1.13442  -1.13363
 Alpha  occ. eigenvalues --   -1.13321  -1.13290  -1.13186  -1.13165  -1.13132
 Alpha  occ. eigenvalues --   -1.13101  -1.13045  -1.12996  -1.12975  -1.12920
 Alpha  occ. eigenvalues --   -0.20083  -0.13900  -0.12786  -0.10937
 Alpha virt. eigenvalues --   -0.05710  -0.05126  -0.04394  -0.03300  -0.02694
 Alpha virt. eigenvalues --   -0.02115  -0.01561  -0.01186  -0.00100   0.00070
 Alpha virt. eigenvalues --    0.00261   0.00490   0.00804   0.00830   0.00957

  Beta  occ. eigenvalues --  -38.44032 -38.43944 -38.43678 -38.43614 -38.43457
  Beta  occ. eigenvalues --  -38.43348 -38.43347  -2.20020  -2.19834  -2.19703
  Beta  occ. eigenvalues --   -2.19680  -2.19492  -2.19415  -2.19355  -1.13843
  Beta  occ. eigenvalues --   -1.13694  -1.13656  -1.13594  -1.13586  -1.13521
  Beta  occ. eigenvalues --   -1.13452  -1.13440  -1.13392  -1.13343  -1.13329
  Beta  occ. eigenvalues --   -1.13241  -1.13237  -1.13167  -1.13110  -1.13077
  Beta  occ. eigenvalues --   -1.13043  -1.12992  -1.12986  -1.12957  -1.12909
  Beta  occ. eigenvalues --   -0.19326  -0.13644  -0.12531
  Beta virt. eigenvalues --   -0.06927  -0.05573  -0.05066  -0.04186  -0.02601
  Beta virt. eigenvalues --   -0.02093  -0.01560  -0.01137  -0.01036   0.00043
  Beta virt. eigenvalues --    0.00130   0.00320   0.00575   0.00820   0.00891

 Mulliken charges and spin densities:
               1          2
     1  Na  -1.461854   0.218475
     2  Na  -0.483286   0.162691
     3  Na   1.823941   0.222832
     4  Na   0.063346   0.343066
     5  Na  -0.598467  -0.151627
     6  Na   0.658845   0.280040
     7  Na  -0.002525  -0.075477
 Sum of Mulliken charges =  -0.00000   1.00000

 Dipole moment (field-independent basis, Debye):
    X=             -0.0932    Y=             -0.3854    Z=              0.0753  Tot=              0.4036
 Quadrupole moment (field-independent basis, Debye-Ang):
   XX=            -56.9267   YY=            -62.2516   ZZ=            -73.8072
   XY=              1.7574   XZ=              0.4240   YZ=             -0.0544

 Normal termination of Gaussian 16 at Mon Nov 13 16:45:31 2023.
