 Gaussian 16, Revision B.01,
 Gaussian 16:  ES64L-G16RevB.01 20-Dec-2017

 -------------------------
 #P B3LYP/6-311+g(d) force
 -------------------------

 ------------------------------
 Gaussian input prepared by ASE
 ------------------------------
 Symbolic Z-matrix:
 Charge =  0 Multiplicity = 2

                         Standard orientation:
 ---------------------------------------------------------------------
 Center     Atomic      Atomic             Coordinates (Angstroms)
 Number     Number       Type             X           Y           Z
 ---------------------------------------------------------------------
      1         11           0       -1.882254   -1.931218    1.013868
      2         11           0       -0.035799    1.601736   -1.773981
      3         11           0        0.064522    2.891713    0.937071
      4         11           0       -0.122882    0.180282    2.215849
      5         11           0       -2.149018   -0.518512   -1.616903
      6         11           0        0.566675   -1.022118   -0.448910
      7         11           0        3.558757   -1.201883   -0.326994
 ---------------------------------------------------------------------

 SCF Done:  E(UB3LYP) =  -1136.09985889     A.U. after   26 cycles

 The electronic state is 2-A.
 Alpha  occ. eigenvalues --  -38.44715 -38.44624 -38.44146 -38.43778 -38.43569
 Alpha  occ. eigenvalues --  -38.43551 -38.43242  -2.20703  -2.20442  -2.20044
 Alpha  occ. eigenvalues --   -2.19763  -2.19551  -2.19530  -2.19432  -1.14425
 Alpha  occ. eigenvalues --   -1.14385  -1.14307  -1.14150  -1.14061  -1.14049
 Alpha  occ. eigenvalues --   -1.13730  -1.13714  -1.13648  -1.13532  -1.13434
 Alpha  occ. eigenvalues --   -1.13428  -1.13399  -1.13246  -1.13209  -1.13171
 Alpha  occ. eigenvalues --   -1.13129  -1.13110  -1.13058  -1.13012  -1.12990
 Alpha  occ. eigenvalues --   -0.19484  -0.12969  -0.12889  -0.12336
 Alpha virt. eigenvalues --   -0.05532  -0.04533  -0.04419  -0.03876  -0.03078
 Alpha virt. eigenvalues --   -0.03025  -0.01299  -0.00725  -0.00544   0.00290
 Alpha virt. eigenvalues --    0.00438   0.00568   0.00741   0.00813   0.00949

  Beta  occ. eigenvalues --  -38.44638 -38.44563 -38.44109 -38.43757 -38.43548
  Beta  occ. eigenvalues --  -38.43539 -38.43207  -2.20566  -2.20331  -2.19978
  Beta  occ. eigenvalues --   -2.19726  -2.19522  -2.19505  -2.19375  -1.14329
  Beta  occ. eigenvalues --   -1.14281  -1.14210  -1.14065  -1.13987  -1.13978
  Beta  occ. eigenvalues --   -1.13688  -1.13654  -1.13607  -1.13511  -1.13402
  Beta  occ. eigenvalues --   -1.13392  -1.13364  -1.13222  -1.13191  -1.13137
  Beta  occ. eigenvalues --   -1.13109  -1.13043  -1.13037  -1.12973  -1.12957
  Beta  occ. eigenvalues --   -0.18765  -0.12662  -0.11804
  Beta virt. eigenvalues --   -0.08956  -0.05245  -0.04248  -0.03855  -0.03343
  Beta virt. eigenvalues --   -0.02873  -0.02361  -0.01067  -0.00637  -0.00319
  Beta virt. eigenvalues --    0.00333   0.00547   0.00727   0.00863   0.00931

 Mulliken charges and spin densities:
               1          2
     1  Na   0.886673   0.159299
     2  Na   0.710775   0.248533
     3  Na  -0.566952  -0.045768
     4  Na   0.187768   0.555008
     5  Na   0.411011  -0.118654
     6  Na  -1.739471  -0.058496
     7  Na   0.110197   0.260077
 Sum of Mulliken charges =  -0.00000   1.00000

 Dipole moment (field-independent basis, Debye):
    X=              0.0262    Y=              0.3096    Z=              0.3377  Tot=              0.4589
 Quadrupole moment (field-independent basis, Debye-Ang):
   XX=            -61.8129   YY=            -68.1958   ZZ=            -65.7803
   XY=              1.5133   XZ=             -2.8565   YZ=              1.6022

 Normal termination of Gaussian 16 at Mon Nov 13 18:59:18 2023.
