 Gaussian 16, Revision B.01,
 Gaussian 16:  ES64L-G16RevB.01 20-Dec-2017

 -------------------------
 #P B3LYP/6-311+g(d) force
 -------------------------

 ------------------------------
 Gaussian input prepared by ASE
 ------------------------------
 Symbolic Z-matrix:
 Charge =  0 Multiplicity = 2

                         Standard orientation:
 ---------------------------------------------------------------------
 Center     Atomic      Atomic             Coordinates (Angstroms)
 Number     Number       Type             X           Y           Z
 ---------------------------------------------------------------------
      1         11           0        0.137404    0.088655   -1.468812
      2         11           0        1.407099    2.049701    0.199751
      3         11           0       -1.649598    1.983725   -0.190220
      4         11           0       -2.665029   -0.902448   -0.018751
      5         11           0        2.619949   -0.752622   -0.255285
      6         11           0        0.020115   -2.398223   -0.003566
      7         11           0        0.130060   -0.068788    1.736883
 ---------------------------------------------------------------------

 SCF Done:  E(UB3LYP) =  -1136.10827858     A.U. after   20 cycles

 The electronic state is 2-A.
 Alpha  occ. eigenvalues --  -38.43644 -38.43643 -38.43391 -38.43338 -38.43331
 Alpha  occ. eigenvalues --  -38.43322 -38.43195  -2.19684  -2.19630  -2.19607
 Alpha  occ. eigenvalues --   -2.19557  -2.19401  -2.19358  -2.19268  -1.13620
 Alpha  occ. eigenvalues --   -1.13516  -1.13448  -1.13346  -1.13334  -1.13329
 Alpha  occ. eigenvalues --   -1.13315  -1.13265  -1.13252  -1.13221  -1.13190
 Alpha  occ. eigenvalues --   -1.13123  -1.13057  -1.12996  -1.12985  -1.12974
 Alpha  occ. eigenvalues --   -1.12968  -1.12902  -1.12889  -1.12866  -1.12837
 Alpha  occ. eigenvalues --   -0.20875  -0.13695  -0.13087  -0.11359
 Alpha virt. eigenvalues --   -0.05216  -0.04670  -0.04371  -0.03256  -0.02984
 Alpha virt. eigenvalues --   -0.02322  -0.01264  -0.00764   0.00019   0.00332
 Alpha virt. eigenvalues --    0.00437   0.00490   0.00953   0.01059   0.01074

  Beta  occ. eigenvalues --  -38.43638 -38.43630 -38.43328 -38.43307 -38.43299
  Beta  occ. eigenvalues --  -38.43255 -38.43182  -2.19660  -2.19603  -2.19500
  Beta  occ. eigenvalues --   -2.19398  -2.19371  -2.19345  -2.19249  -1.13574
  Beta  occ. eigenvalues --   -1.13451  -1.13399  -1.13328  -1.13316  -1.13283
  Beta  occ. eigenvalues --   -1.13240  -1.13226  -1.13210  -1.13149  -1.13121
  Beta  occ. eigenvalues --   -1.13049  -1.13012  -1.12955  -1.12948  -1.12920
  Beta  occ. eigenvalues --   -1.12904  -1.12895  -1.12854  -1.12833  -1.12793
  Beta  occ. eigenvalues --   -0.20108  -0.13363  -0.12742
  Beta virt. eigenvalues --   -0.07251  -0.05221  -0.04651  -0.04381  -0.02369
  Beta virt. eigenvalues --   -0.02085  -0.01268  -0.01162  -0.00713   0.00144
  Beta virt. eigenvalues --    0.00344   0.00405   0.00446   0.00980   0.01056

 Mulliken charges and spin densities:
               1          2
     1  Na  -1.236567   0.348257
     2  Na   0.603677   0.072973
     3  Na   0.361873   0.001994
     4  Na   0.039126  -0.043667
     5  Na   0.475535   0.007328
     6  Na   0.532070   0.032247
     7  Na  -0.775713   0.580868
 Sum of Mulliken charges =  -0.00000   1.00000

 Dipole moment (field-independent basis, Debye):
    X=             -0.1469    Y=             -0.0526    Z=              0.2174  Tot=              0.2676
 Quadrupole moment (field-independent basis, Debye-Ang):
   XX=            -57.2107   YY=            -64.8863   ZZ=            -72.6509
   XY=             -0.0595   XZ=             -0.0918   YZ=              0.3250

 Normal termination of Gaussian 16 at Mon Nov 13 19:06:37 2023.
