 Gaussian 16, Revision B.01,
 Gaussian 16:  ES64L-G16RevB.01 20-Dec-2017

 -------------------------
 #P B3LYP/6-311+g(d) force
 -------------------------

 ------------------------------
 Gaussian input prepared by ASE
 ------------------------------
 Symbolic Z-matrix:
 Charge =  0 Multiplicity = 2

                         Standard orientation:
 ---------------------------------------------------------------------
 Center     Atomic      Atomic             Coordinates (Angstroms)
 Number     Number       Type             X           Y           Z
 ---------------------------------------------------------------------
      1         11           0       -0.435928    0.004130   -1.381448
      2         11           0       -3.147043   -0.898473   -0.432800
      3         11           0        4.388879   -0.001408   -0.362202
      4         11           0        1.692048    0.889533    0.556044
      5         11           0       -1.611032    2.467883   -0.119294
      6         11           0       -1.026937    0.003584    1.500675
      7         11           0        0.140014   -2.465250    0.239026
 ---------------------------------------------------------------------

 SCF Done:  E(UB3LYP) =  -1136.10083080     A.U. after   26 cycles

 The electronic state is 2-A.
 Alpha  occ. eigenvalues --  -38.44907 -38.44608 -38.44469 -38.43499 -38.43079
 Alpha  occ. eigenvalues --  -38.42910 -38.42841  -2.20780  -2.20720  -2.20405
 Alpha  occ. eigenvalues --   -2.19722  -2.19019  -2.18930  -2.18788  -1.14553
 Alpha  occ. eigenvalues --   -1.14477  -1.14415  -1.14413  -1.14349  -1.14334
 Alpha  occ. eigenvalues --   -1.14122  -1.14060  -1.13962  -1.13455  -1.13373
 Alpha  occ. eigenvalues --   -1.13329  -1.12737  -1.12687  -1.12670  -1.12601
 Alpha  occ. eigenvalues --   -1.12581  -1.12501  -1.12485  -1.12458  -1.12379
 Alpha  occ. eigenvalues --   -0.19877  -0.13820  -0.12017  -0.10813
 Alpha virt. eigenvalues --   -0.07419  -0.04304  -0.03670  -0.03239  -0.02683
 Alpha virt. eigenvalues --   -0.02200  -0.01883  -0.01151  -0.00682  -0.00260
 Alpha virt. eigenvalues --    0.00002   0.00266   0.00451   0.00763   0.00926

  Beta  occ. eigenvalues --  -38.44857 -38.44581 -38.44436 -38.43429 -38.43065
  Beta  occ. eigenvalues --  -38.42887 -38.42835  -2.20733  -2.20625  -2.20346
  Beta  occ. eigenvalues --   -2.19600  -2.18998  -2.18897  -2.18782  -1.14506
  Beta  occ. eigenvalues --   -1.14422  -1.14388  -1.14353  -1.14283  -1.14271
  Beta  occ. eigenvalues --   -1.14085  -1.14008  -1.13920  -1.13367  -1.13273
  Beta  occ. eigenvalues --   -1.13237  -1.12726  -1.12646  -1.12644  -1.12572
  Beta  occ. eigenvalues --   -1.12522  -1.12490  -1.12479  -1.12447  -1.12355
  Beta  occ. eigenvalues --   -0.19228  -0.13268  -0.11798
  Beta virt. eigenvalues --   -0.07223  -0.06912  -0.04227  -0.03506  -0.02830
  Beta virt. eigenvalues --   -0.02436  -0.01674  -0.01148  -0.00966  -0.00449
  Beta virt. eigenvalues --   -0.00062   0.00103   0.00324   0.00621   0.00802

 Mulliken charges and spin densities:
               1          2
     1  Na  -0.954503   0.686723
     2  Na   0.462675   0.090938
     3  Na   0.145913   0.236663
     4  Na   0.128134  -0.109505
     5  Na   0.304829  -0.000659
     6  Na  -0.342576   0.271816
     7  Na   0.255528  -0.175975
 Sum of Mulliken charges =  -0.00000   1.00000

 Dipole moment (field-independent basis, Debye):
    X=             -0.2791    Y=             -0.4840    Z=              0.1953  Tot=              0.5919
 Quadrupole moment (field-independent basis, Debye-Ang):
   XX=            -53.5575   YY=            -69.7261   ZZ=            -70.1504
   XY=             -2.2260   XZ=             -2.5092   YZ=             -0.0630

 Normal termination of Gaussian 16 at Mon Nov 13 18:36:46 2023.
