 Gaussian 16, Revision B.01,
 Gaussian 16:  ES64L-G16RevB.01 20-Dec-2017

 -------------------------
 #P B3LYP/6-311+g(d) force
 -------------------------

 ------------------------------
 Gaussian input prepared by ASE
 ------------------------------
 Symbolic Z-matrix:
 Charge =  0 Multiplicity = 2

                         Standard orientation:
 ---------------------------------------------------------------------
 Center     Atomic      Atomic             Coordinates (Angstroms)
 Number     Number       Type             X           Y           Z
 ---------------------------------------------------------------------
      1         11           0       -0.221617   -0.279301    1.584075
      2         11           0       -2.046980   -1.532080   -0.252882
      3         11           0        0.895317   -2.428302   -0.023034
      4         11           0        2.760476    0.002909   -0.000038
      5         11           0        0.889628    2.431592    0.022147
      6         11           0       -0.224216    0.279017   -1.583951
      7         11           0       -2.052607    1.526164    0.253682
 ---------------------------------------------------------------------

 SCF Done:  E(UB3LYP) =  -1136.10873868     A.U. after   22 cycles

 The electronic state is 2-A.
 Alpha  occ. eigenvalues --  -38.43558 -38.43510 -38.43509 -38.43389 -38.43388
 Alpha  occ. eigenvalues --  -38.43311 -38.43310  -2.19614  -2.19585  -2.19534
 Alpha  occ. eigenvalues --   -2.19528  -2.19515  -2.19408  -2.19406  -1.13634
 Alpha  occ. eigenvalues --   -1.13492  -1.13413  -1.13397  -1.13317  -1.13283
 Alpha  occ. eigenvalues --   -1.13275  -1.13207  -1.13168  -1.13155  -1.13134
 Alpha  occ. eigenvalues --   -1.13125  -1.13095  -1.13046  -1.13046  -1.13013
 Alpha  occ. eigenvalues --   -1.13008  -1.12991  -1.12969  -1.12968  -1.12958
 Alpha  occ. eigenvalues --   -0.20844  -0.13512  -0.13360  -0.11278
 Alpha virt. eigenvalues --   -0.05017  -0.04738  -0.04724  -0.03140  -0.03091
 Alpha virt. eigenvalues --   -0.02230  -0.01026  -0.00900   0.00033   0.00339
 Alpha virt. eigenvalues --    0.00361   0.00456   0.01028   0.01042   0.01077

  Beta  occ. eigenvalues --  -38.43554 -38.43493 -38.43493 -38.43379 -38.43379
  Beta  occ. eigenvalues --  -38.43229 -38.43229  -2.19581  -2.19562  -2.19512
  Beta  occ. eigenvalues --   -2.19408  -2.19407  -2.19377  -2.19376  -1.13593
  Beta  occ. eigenvalues --   -1.13448  -1.13357  -1.13314  -1.13276  -1.13270
  Beta  occ. eigenvalues --   -1.13251  -1.13174  -1.13134  -1.13132  -1.13107
  Beta  occ. eigenvalues --   -1.13053  -1.13011  -1.13002  -1.12994  -1.12989
  Beta  occ. eigenvalues --   -1.12959  -1.12941  -1.12937  -1.12899  -1.12897
  Beta  occ. eigenvalues --   -0.20077  -0.13187  -0.13028
  Beta virt. eigenvalues --   -0.07162  -0.05022  -0.04728  -0.04715  -0.02260
  Beta virt. eigenvalues --   -0.02205  -0.01183  -0.00943  -0.00839   0.00156
  Beta virt. eigenvalues --    0.00308   0.00382   0.00403   0.01049   0.01050

 Mulliken charges and spin densities:
               1          2
     1  Na  -0.853318   0.522182
     2  Na   0.571589   0.016270
     3  Na   0.297580  -0.004762
     4  Na  -0.028089  -0.065892
     5  Na   0.296327  -0.005419
     6  Na  -0.853185   0.522025
     7  Na   0.569096   0.015597
 Sum of Mulliken charges =  -0.00000   1.00000

 Dipole moment (field-independent basis, Debye):
    X=              0.2402    Y=              0.0025    Z=              0.0002  Tot=              0.2402
 Quadrupole moment (field-independent basis, Debye-Ang):
   XX=            -59.9480   YY=            -62.1374   ZZ=            -73.0268
   XY=             -0.0002   XZ=             -0.0055   YZ=              1.1596

 Normal termination of Gaussian 16 at Mon Nov 13 18:07:15 2023.
