 Gaussian 16, Revision B.01,
 Gaussian 16:  ES64L-G16RevB.01 20-Dec-2017

 -------------------------
 #P B3LYP/6-311+g(d) force
 -------------------------

 ------------------------------
 Gaussian input prepared by ASE
 ------------------------------
 Symbolic Z-matrix:
 Charge =  0 Multiplicity = 2

                         Standard orientation:
 ---------------------------------------------------------------------
 Center     Atomic      Atomic             Coordinates (Angstroms)
 Number     Number       Type             X           Y           Z
 ---------------------------------------------------------------------
      1         11           0       -0.075288    0.646558    0.923745
      2         11           0       -2.938825    1.549444    0.901253
      3         11           0       -3.533733   -0.608455   -1.096761
      4         11           0       -0.934928   -1.920024   -0.378015
      5         11           0        1.761897   -1.723414    0.911688
      6         11           0        3.879626   -0.045092   -0.389384
      7         11           0        1.841251    2.100984   -0.872527
 ---------------------------------------------------------------------

 SCF Done:  E(UB3LYP) =  -1136.09927082     A.U. after   25 cycles

 The electronic state is 2-A.
 Alpha  occ. eigenvalues --  -38.44907 -38.44870 -38.44380 -38.44332 -38.43594
 Alpha  occ. eigenvalues --  -38.43569 -38.43540  -2.20792  -2.20779  -2.20254
 Alpha  occ. eigenvalues --   -2.20248  -2.19651  -2.19581  -2.19543  -1.14509
 Alpha  occ. eigenvalues --   -1.14481  -1.14471  -1.14447  -1.14414  -1.14398
 Alpha  occ. eigenvalues --   -1.13980  -1.13950  -1.13894  -1.13876  -1.13874
 Alpha  occ. eigenvalues --   -1.13859  -1.13497  -1.13355  -1.13313  -1.13290
 Alpha  occ. eigenvalues --   -1.13216  -1.13171  -1.13153  -1.13123  -1.13102
 Alpha  occ. eigenvalues --   -0.18871  -0.15247  -0.11845  -0.10922
 Alpha virt. eigenvalues --   -0.07280  -0.04747  -0.04568  -0.03664  -0.03325
 Alpha virt. eigenvalues --   -0.02418  -0.01524  -0.01374  -0.00530  -0.00100
 Alpha virt. eigenvalues --    0.00039   0.00120   0.00471   0.00617   0.00768

  Beta  occ. eigenvalues --  -38.44887 -38.44815 -38.44390 -38.44257 -38.43584
  Beta  occ. eigenvalues --  -38.43549 -38.43469  -2.20761  -2.20675  -2.20272
  Beta  occ. eigenvalues --   -2.20115  -2.19571  -2.19525  -2.19511  -1.14468
  Beta  occ. eigenvalues --   -1.14440  -1.14402  -1.14396  -1.14384  -1.14326
  Beta  occ. eigenvalues --   -1.13984  -1.13913  -1.13870  -1.13853  -1.13784
  Beta  occ. eigenvalues --   -1.13766  -1.13424  -1.13301  -1.13278  -1.13229
  Beta  occ. eigenvalues --   -1.13190  -1.13154  -1.13115  -1.13065  -1.13051
  Beta  occ. eigenvalues --   -0.18316  -0.14616  -0.11541
  Beta virt. eigenvalues --   -0.07399  -0.07044  -0.04415  -0.03937  -0.03616
  Beta virt. eigenvalues --   -0.02833  -0.02112  -0.01095  -0.00933  -0.00249
  Beta virt. eigenvalues --    0.00020   0.00097   0.00215   0.00633   0.00789

 Mulliken charges and spin densities:
               1          2
     1  Na  -2.250878   0.252105
     2  Na  -0.083808   0.165465
     3  Na  -0.003971   0.221958
     4  Na  -0.474009   0.019998
     5  Na   2.452577   0.186827
     6  Na  -0.312755   0.193362
     7  Na   0.672844  -0.039715
 Sum of Mulliken charges =  -0.00000   1.00000

 Dipole moment (field-independent basis, Debye):
    X=              0.0205    Y=              0.2527    Z=              0.0178  Tot=              0.2541
 Quadrupole moment (field-independent basis, Debye-Ang):
   XX=            -57.8031   YY=            -73.8354   ZZ=            -68.4098
   XY=             -5.8384   XZ=             -0.0711   YZ=             -0.2569

 Normal termination of Gaussian 16 at Mon Nov 13 14:57:58 2023.
