 Gaussian 16, Revision B.01,
 Gaussian 16:  ES64L-G16RevB.01 20-Dec-2017

 -------------------------
 #P B3LYP/6-311+g(d) force
 -------------------------

 ------------------------------
 Gaussian input prepared by ASE
 ------------------------------
 Symbolic Z-matrix:
 Charge =  0 Multiplicity = 2

                         Standard orientation:
 ---------------------------------------------------------------------
 Center     Atomic      Atomic             Coordinates (Angstroms)
 Number     Number       Type             X           Y           Z
 ---------------------------------------------------------------------
      1         11           0       -0.526367   -0.782140   -1.414179
      2         11           0       -0.531477   -0.836529    1.384659
      3         11           0       -2.977963   -0.270525   -0.008879
      4         11           0       -0.864253    1.676303    0.031408
      5         11           0        1.517531    0.870652    1.418612
      6         11           0        1.523575    0.929239   -1.382297
      7         11           0        1.858955   -1.587000   -0.029324
 ---------------------------------------------------------------------

 SCF Done:  E(UB3LYP) =  -1136.05562302     A.U. after   24 cycles

 The electronic state is 2-A.
 Alpha  occ. eigenvalues --  -38.44535 -38.44528 -38.44466 -38.44380 -38.44324
 Alpha  occ. eigenvalues --  -38.43324 -38.42827  -2.20795  -2.20750  -2.20682
 Alpha  occ. eigenvalues --   -2.20635  -2.20557  -2.19479  -2.19093  -1.14920
 Alpha  occ. eigenvalues --   -1.14805  -1.14748  -1.14615  -1.14468  -1.14400
 Alpha  occ. eigenvalues --   -1.14356  -1.14265  -1.14197  -1.14177  -1.14171
 Alpha  occ. eigenvalues --   -1.14139  -1.14108  -1.14045  -1.14022  -1.13171
 Alpha  occ. eigenvalues --   -1.13114  -1.13054  -1.12814  -1.12728  -1.12664
 Alpha  occ. eigenvalues --   -0.22100  -0.14434  -0.13218  -0.11907
 Alpha virt. eigenvalues --   -0.05743  -0.04269  -0.03953  -0.03709  -0.02845
 Alpha virt. eigenvalues --   -0.02661  -0.01333  -0.00347  -0.00249   0.00279
 Alpha virt. eigenvalues --    0.00736   0.00977   0.01025   0.01064   0.01103

  Beta  occ. eigenvalues --  -38.44525 -38.44473 -38.44406 -38.44309 -38.44254
  Beta  occ. eigenvalues --  -38.43310 -38.42807  -2.20684  -2.20634  -2.20581
  Beta  occ. eigenvalues --   -2.20544  -2.20516  -2.19461  -2.19065  -1.14832
  Beta  occ. eigenvalues --   -1.14694  -1.14669  -1.14541  -1.14397  -1.14327
  Beta  occ. eigenvalues --   -1.14298  -1.14203  -1.14183  -1.14119  -1.14088
  Beta  occ. eigenvalues --   -1.14074  -1.14045  -1.13973  -1.13914  -1.13166
  Beta  occ. eigenvalues --   -1.13052  -1.13038  -1.12804  -1.12655  -1.12636
  Beta  occ. eigenvalues --   -0.21242  -0.14185  -0.11649
  Beta virt. eigenvalues --   -0.08644  -0.05676  -0.03734  -0.03450  -0.03240
  Beta virt. eigenvalues --   -0.02090  -0.01947  -0.01278  -0.00236  -0.00087
  Beta virt. eigenvalues --    0.00313   0.00797   0.01051   0.01105   0.01135

 Mulliken charges and spin densities:
               1          2
     1  Na  -0.224867   0.343551
     2  Na  -0.238529   0.351409
     3  Na   0.910365  -0.015887
     4  Na  -0.887956   0.141537
     5  Na   0.386687   0.115351
     6  Na   0.369366   0.114334
     7  Na  -0.315065  -0.050293
 Sum of Mulliken charges =  -0.00000   1.00000

 Dipole moment (field-independent basis, Debye):
    X=             -0.2924    Y=              0.0225    Z=             -0.0042  Tot=              0.2932
 Quadrupole moment (field-independent basis, Debye-Ang):
   XX=            -55.9829   YY=            -76.6782   ZZ=            -64.4989
   XY=              0.0102   XZ=             -0.0110   YZ=              0.0466

 Normal termination of Gaussian 16 at Mon Nov 13 19:58:23 2023.
