 Gaussian 16, Revision B.01,
 Gaussian 16:  ES64L-G16RevB.01 20-Dec-2017

 -------------------------
 #P B3LYP/6-311+g(d) force
 -------------------------

 ------------------------------
 Gaussian input prepared by ASE
 ------------------------------
 Symbolic Z-matrix:
 Charge =  0 Multiplicity = 2

                         Standard orientation:
 ---------------------------------------------------------------------
 Center     Atomic      Atomic             Coordinates (Angstroms)
 Number     Number       Type             X           Y           Z
 ---------------------------------------------------------------------
      1         11           0        0.129973   -0.000217   -1.738788
      2         11           0        0.130696   -0.000065    1.738901
      3         11           0        1.994863    1.592817   -0.000294
      4         11           0       -0.801708    1.973683    0.000311
      5         11           0       -2.652324   -0.002255   -0.000267
      6         11           0       -0.799969   -1.973026    0.000507
      7         11           0        1.998469   -1.590937   -0.000370
 ---------------------------------------------------------------------

 SCF Done:  E(UB3LYP) =  -1136.07939635     A.U. after   18 cycles

 The electronic state is 2-A.
 Alpha  occ. eigenvalues --  -38.44097 -38.44068 -38.44068 -38.43651 -38.43647
 Alpha  occ. eigenvalues --  -38.43473 -38.43471  -2.20337  -2.20329  -2.20199
 Alpha  occ. eigenvalues --   -2.19875  -2.19860  -2.19550  -2.19543  -1.14301
 Alpha  occ. eigenvalues --   -1.14156  -1.14103  -1.14101  -1.14088  -1.14074
 Alpha  occ. eigenvalues --   -1.13938  -1.13903  -1.13752  -1.13572  -1.13529
 Alpha  occ. eigenvalues --   -1.13443  -1.13408  -1.13398  -1.13373  -1.13240
 Alpha  occ. eigenvalues --   -1.13178  -1.13172  -1.13163  -1.13130  -1.13058
 Alpha  occ. eigenvalues --   -0.21722  -0.13867  -0.13093  -0.12183
 Alpha virt. eigenvalues --   -0.05107  -0.04413  -0.04099  -0.03577  -0.03249
 Alpha virt. eigenvalues --   -0.02741  -0.01089  -0.00551  -0.00060   0.00348
 Alpha virt. eigenvalues --    0.00755   0.00840   0.01009   0.01138   0.01176

  Beta  occ. eigenvalues --  -38.44089 -38.43974 -38.43973 -38.43632 -38.43629
  Beta  occ. eigenvalues --  -38.43462 -38.43461  -2.20193  -2.20164  -2.20158
  Beta  occ. eigenvalues --   -2.19850  -2.19833  -2.19537  -2.19530  -1.14242
  Beta  occ. eigenvalues --   -1.14107  -1.14052  -1.14043  -1.13977  -1.13967
  Beta  occ. eigenvalues --   -1.13818  -1.13805  -1.13692  -1.13551  -1.13499
  Beta  occ. eigenvalues --   -1.13387  -1.13357  -1.13352  -1.13315  -1.13232
  Beta  occ. eigenvalues --   -1.13158  -1.13126  -1.13119  -1.13115  -1.13055
  Beta  occ. eigenvalues --   -0.20892  -0.13496  -0.12706
  Beta virt. eigenvalues --   -0.07975  -0.05150  -0.04399  -0.04074  -0.02615
  Beta virt. eigenvalues --   -0.02290  -0.01656  -0.01019  -0.00506   0.00078
  Beta virt. eigenvalues --    0.00376   0.00720   0.00824   0.01042   0.01137

 Mulliken charges and spin densities:
               1          2
     1  Na  -0.336760   0.471975
     2  Na  -0.336725   0.471829
     3  Na   0.126435  -0.039034
     4  Na   0.301666   0.101630
     5  Na  -0.181365  -0.069113
     6  Na   0.301284   0.102062
     7  Na   0.125465  -0.039349
 Sum of Mulliken charges =  -0.00000   1.00000

 Dipole moment (field-independent basis, Debye):
    X=              0.2239    Y=              0.0001    Z=             -0.0001  Tot=              0.2239
 Quadrupole moment (field-independent basis, Debye-Ang):
   XX=            -59.4608   YY=            -68.8495   ZZ=            -69.2840
   XY=             -0.0062   XZ=             -0.0011   YZ=             -0.0002

 Normal termination of Gaussian 16 at Mon Nov 13 19:44:39 2023.
