 Gaussian 16, Revision B.01,
 Gaussian 16:  ES64L-G16RevB.01 20-Dec-2017

 -------------------------
 #P B3LYP/6-311+g(d) force
 -------------------------

 ------------------------------
 Gaussian input prepared by ASE
 ------------------------------
 Symbolic Z-matrix:
 Charge =  0 Multiplicity = 2

                         Standard orientation:
 ---------------------------------------------------------------------
 Center     Atomic      Atomic             Coordinates (Angstroms)
 Number     Number       Type             X           Y           Z
 ---------------------------------------------------------------------
      1         11           0        1.571201   -1.251455   -0.719649
      2         11           0       -2.422232    2.845678   -0.299368
      3         11           0        3.820661   -0.199106    0.962754
      4         11           0        1.933589    1.700087   -0.386154
      5         11           0       -0.716414    0.435737    0.252445
      6         11           0       -1.250992   -2.208771   -1.060968
      7         11           0       -2.935813   -1.322169    1.250939
 ---------------------------------------------------------------------

 SCF Done:  E(UB3LYP) =  -1136.10143914     A.U. after   22 cycles

 The electronic state is 2-A.
 Alpha  occ. eigenvalues --  -38.44617 -38.44305 -38.44058 -38.44040 -38.43658
 Alpha  occ. eigenvalues --  -38.43418 -38.42927  -2.20588  -2.20231  -2.19975
 Alpha  occ. eigenvalues --   -2.19829  -2.19749  -2.19408  -2.19115  -1.14357
 Alpha  occ. eigenvalues --   -1.14264  -1.14235  -1.13920  -1.13841  -1.13840
 Alpha  occ. eigenvalues --   -1.13699  -1.13634  -1.13569  -1.13555  -1.13501
 Alpha  occ. eigenvalues --   -1.13488  -1.13457  -1.13401  -1.13369  -1.13118
 Alpha  occ. eigenvalues --   -1.13039  -1.13014  -1.12819  -1.12750  -1.12698
 Alpha  occ. eigenvalues --   -0.18998  -0.14786  -0.12078  -0.10535
 Alpha virt. eigenvalues --   -0.06147  -0.05475  -0.04345  -0.03763  -0.02307
 Alpha virt. eigenvalues --   -0.02162  -0.01759  -0.01362  -0.00313  -0.00102
 Alpha virt. eigenvalues --    0.00069   0.00157   0.00541   0.00629   0.00736

  Beta  occ. eigenvalues --  -38.44604 -38.44244 -38.44053 -38.43988 -38.43613
  Beta  occ. eigenvalues --  -38.43396 -38.42900  -2.20570  -2.20116  -2.19855
  Beta  occ. eigenvalues --   -2.19843  -2.19676  -2.19378  -2.19076  -1.14341
  Beta  occ. eigenvalues --   -1.14230  -1.14204  -1.13844  -1.13768  -1.13760
  Beta  occ. eigenvalues --   -1.13621  -1.13569  -1.13542  -1.13506  -1.13476
  Beta  occ. eigenvalues --   -1.13467  -1.13434  -1.13352  -1.13295  -1.13100
  Beta  occ. eigenvalues --   -1.13003  -1.12953  -1.12767  -1.12693  -1.12680
  Beta  occ. eigenvalues --   -0.18320  -0.14204  -0.11874
  Beta virt. eigenvalues --   -0.06871  -0.05912  -0.05313  -0.03865  -0.03407
  Beta virt. eigenvalues --   -0.02052  -0.01777  -0.01493  -0.00829  -0.00094
  Beta virt. eigenvalues --    0.00056   0.00188   0.00297   0.00651   0.00782

 Mulliken charges and spin densities:
               1          2
     1  Na   0.110284   0.335584
     2  Na   0.426168  -0.155731
     3  Na   1.025535   0.392798
     4  Na   0.846355   0.158585
     5  Na  -4.176317   0.270263
     6  Na   0.364552  -0.123999
     7  Na   1.403423   0.122501
 Sum of Mulliken charges =  -0.00000   1.00000

 Dipole moment (field-independent basis, Debye):
    X=              0.2821    Y=              0.0972    Z=             -0.3209  Tot=              0.4382
 Quadrupole moment (field-independent basis, Debye-Ang):
   XX=            -59.8614   YY=            -66.8599   ZZ=            -68.9392
   XY=             -1.0975   XZ=              1.4514   YZ=             -1.3789

 Normal termination of Gaussian 16 at Mon Nov 13 17:31:22 2023.
