 Gaussian 16, Revision B.01,
 Gaussian 16:  ES64L-G16RevB.01 20-Dec-2017

 -------------------------
 #P B3LYP/6-311+g(d) force
 -------------------------

 ------------------------------
 Gaussian input prepared by ASE
 ------------------------------
 Symbolic Z-matrix:
 Charge =  0 Multiplicity = 2

                         Standard orientation:
 ---------------------------------------------------------------------
 Center     Atomic      Atomic             Coordinates (Angstroms)
 Number     Number       Type             X           Y           Z
 ---------------------------------------------------------------------
      1         11           0       -1.860938    1.976210    0.241810
      2         11           0       -2.383704   -0.693708    1.506414
      3         11           0       -2.537936   -0.393928   -1.470406
      4         11           0       -0.403044   -2.112779   -0.245166
      5         11           0        2.577814   -2.049603    0.080383
      6         11           0        3.538520    0.791967    0.050171
      7         11           0        1.069289    2.481841   -0.163206
 ---------------------------------------------------------------------

 SCF Done:  E(UB3LYP) =  -1136.09867308     A.U. after   24 cycles

 The electronic state is 2-A.
 Alpha  occ. eigenvalues --  -38.45354 -38.44804 -38.44454 -38.44281 -38.44271
 Alpha  occ. eigenvalues --  -38.44133 -38.44069  -2.21217  -2.20663  -2.20419
 Alpha  occ. eigenvalues --   -2.20286  -2.20124  -2.20090  -2.20072  -1.14934
 Alpha  occ. eigenvalues --   -1.14895  -1.14851  -1.14391  -1.14301  -1.14291
 Alpha  occ. eigenvalues --   -1.14221  -1.14135  -1.14098  -1.14050  -1.13942
 Alpha  occ. eigenvalues --   -1.13865  -1.13848  -1.13787  -1.13763  -1.13750
 Alpha  occ. eigenvalues --   -1.13720  -1.13694  -1.13677  -1.13664  -1.13617
 Alpha  occ. eigenvalues --   -0.18819  -0.14885  -0.12915  -0.10157
 Alpha virt. eigenvalues --   -0.07017  -0.06745  -0.04292  -0.03446  -0.02580
 Alpha virt. eigenvalues --   -0.02266  -0.01815  -0.01517  -0.01090  -0.00313
 Alpha virt. eigenvalues --   -0.00193   0.00345   0.00546   0.00568   0.00674

  Beta  occ. eigenvalues --  -38.45356 -38.44808 -38.44430 -38.44273 -38.44214
  Beta  occ. eigenvalues --  -38.44113 -38.43995  -2.21219  -2.20672  -2.20382
  Beta  occ. eigenvalues --   -2.20165  -2.20128  -2.20055  -2.19941  -1.14939
  Beta  occ. eigenvalues --   -1.14897  -1.14850  -1.14396  -1.14307  -1.14292
  Beta  occ. eigenvalues --   -1.14192  -1.14113  -1.14012  -1.13987  -1.13845
  Beta  occ. eigenvalues --   -1.13796  -1.13784  -1.13780  -1.13763  -1.13744
  Beta  occ. eigenvalues --   -1.13700  -1.13634  -1.13592  -1.13570  -1.13534
  Beta  occ. eigenvalues --   -0.18198  -0.14743  -0.12753
  Beta virt. eigenvalues --   -0.06935  -0.06576  -0.06057  -0.04200  -0.03094
  Beta virt. eigenvalues --   -0.02099  -0.01895  -0.01518  -0.01192  -0.00739
  Beta virt. eigenvalues --   -0.00285   0.00218   0.00487   0.00629   0.00769

 Mulliken charges and spin densities:
               1          2
     1  Na  -0.510733   0.483381
     2  Na   0.418946   0.167310
     3  Na   0.732428   0.242525
     4  Na  -0.728084   0.370608
     5  Na   0.257346  -0.139086
     6  Na  -0.401057   0.092957
     7  Na   0.231154  -0.217697
 Sum of Mulliken charges =  -0.00000   1.00000

 Dipole moment (field-independent basis, Debye):
    X=              1.1481    Y=              0.0283    Z=             -0.0508  Tot=              1.1496
 Quadrupole moment (field-independent basis, Debye-Ang):
   XX=            -53.4878   YY=            -68.6543   ZZ=            -77.8337
   XY=             -0.8983   XZ=              1.2563   YZ=             -0.7934

 Normal termination of Gaussian 16 at Mon Nov 13 15:34:58 2023.
