 Gaussian 16, Revision B.01,
 Gaussian 16:  ES64L-G16RevB.01 20-Dec-2017

 -------------------------
 #P B3LYP/6-311+g(d) force
 -------------------------

 ------------------------------
 Gaussian input prepared by ASE
 ------------------------------
 Symbolic Z-matrix:
 Charge =  0 Multiplicity = 2

                         Standard orientation:
 ---------------------------------------------------------------------
 Center     Atomic      Atomic             Coordinates (Angstroms)
 Number     Number       Type             X           Y           Z
 ---------------------------------------------------------------------
      1         11           0        0.541486    1.497741    0.173873
      2         11           0       -1.422347   -0.152330    1.731892
      3         11           0       -2.380060    1.570195   -0.527100
      4         11           0       -2.468270   -1.423233   -0.767579
      5         11           0        0.478679   -1.475733   -0.178223
      6         11           0        2.774647   -0.186873    1.262130
      7         11           0        2.475866    0.170233   -1.694993
 ---------------------------------------------------------------------

 SCF Done:  E(UB3LYP) =  -1136.09376810     A.U. after   25 cycles

 The electronic state is 2-A.
 Alpha  occ. eigenvalues --  -38.45245 -38.44818 -38.44260 -38.43673 -38.43662
 Alpha  occ. eigenvalues --  -38.42700 -38.42597  -2.21231  -2.20812  -2.20355
 Alpha  occ. eigenvalues --   -2.19664  -2.19644  -2.18859  -2.18755  -1.14974
 Alpha  occ. eigenvalues --   -1.14885  -1.14863  -1.14517  -1.14420  -1.14410
 Alpha  occ. eigenvalues --   -1.14125  -1.14031  -1.13960  -1.13438  -1.13350
 Alpha  occ. eigenvalues --   -1.13323  -1.13298  -1.13273  -1.13181  -1.12652
 Alpha  occ. eigenvalues --   -1.12527  -1.12481  -1.12424  -1.12388  -1.12349
 Alpha  occ. eigenvalues --   -0.20422  -0.15161  -0.11696  -0.10967
 Alpha virt. eigenvalues --   -0.06521  -0.05198  -0.04612  -0.03052  -0.02180
 Alpha virt. eigenvalues --   -0.02107  -0.02066  -0.00863  -0.00290   0.00251
 Alpha virt. eigenvalues --    0.00323   0.00469   0.00659   0.00727   0.00833

  Beta  occ. eigenvalues --  -38.45219 -38.44762 -38.44209 -38.43663 -38.43651
  Beta  occ. eigenvalues --  -38.42672 -38.42569  -2.21188  -2.20708  -2.20264
  Beta  occ. eigenvalues --   -2.19646  -2.19626  -2.18819  -2.18715  -1.14950
  Beta  occ. eigenvalues --   -1.14834  -1.14816  -1.14446  -1.14344  -1.14339
  Beta  occ. eigenvalues --   -1.14070  -1.13944  -1.13901  -1.13420  -1.13339
  Beta  occ. eigenvalues --   -1.13313  -1.13273  -1.13252  -1.13164  -1.12632
  Beta  occ. eigenvalues --   -1.12468  -1.12416  -1.12376  -1.12334  -1.12307
  Beta  occ. eigenvalues --   -0.19576  -0.14953  -0.10780
  Beta virt. eigenvalues --   -0.07629  -0.06253  -0.04511  -0.04448  -0.02797
  Beta virt. eigenvalues --   -0.02055  -0.01506  -0.01481  -0.00355  -0.00264
  Beta virt. eigenvalues --    0.00304   0.00477   0.00643   0.00669   0.00860

 Mulliken charges and spin densities:
               1          2
     1  Na  -0.187477   0.532911
     2  Na  -0.103981  -0.108078
     3  Na  -0.224624   0.101958
     4  Na  -0.001780   0.025950
     5  Na  -0.309241   0.581708
     6  Na   0.503696   0.075644
     7  Na   0.323407  -0.210093
 Sum of Mulliken charges =  -0.00000   1.00000

 Dipole moment (field-independent basis, Debye):
    X=              0.7884    Y=              0.0103    Z=              0.0153  Tot=              0.7886
 Quadrupole moment (field-independent basis, Debye-Ang):
   XX=            -48.6223   YY=            -81.7889   ZZ=            -63.5045
   XY=             -0.3228   XZ=              1.9616   YZ=             -1.9247

 Normal termination of Gaussian 16 at Mon Nov 13 18:03:18 2023.
