 Gaussian 16, Revision B.01,
 Gaussian 16:  ES64L-G16RevB.01 20-Dec-2017

 -------------------------
 #P B3LYP/6-311+g(d) force
 -------------------------

 ------------------------------
 Gaussian input prepared by ASE
 ------------------------------
 Symbolic Z-matrix:
 Charge =  0 Multiplicity = 2

                         Standard orientation:
 ---------------------------------------------------------------------
 Center     Atomic      Atomic             Coordinates (Angstroms)
 Number     Number       Type             X           Y           Z
 ---------------------------------------------------------------------
      1         11           0       -0.004482    0.147002   -1.983106
      2         11           0        0.001101   -1.754647    0.000517
      3         11           0       -2.458680   -0.826552    0.001235
      4         11           0       -1.341975    1.555240    0.001229
      5         11           0        0.001615    0.147620    1.984003
      6         11           0        1.341500    1.556647   -0.001908
      7         11           0        2.460920   -0.825311   -0.001970
 ---------------------------------------------------------------------

 SCF Done:  E(UB3LYP) =  -1136.04675925     A.U. after   21 cycles

 The electronic state is 2-A.
 Alpha  occ. eigenvalues --  -38.45175 -38.45175 -38.44360 -38.44360 -38.43778
 Alpha  occ. eigenvalues --  -38.43772 -38.43603  -2.21411  -2.21410  -2.20495
 Alpha  occ. eigenvalues --   -2.20491  -2.20103  -2.20024  -2.19935  -1.15291
 Alpha  occ. eigenvalues --   -1.15211  -1.15095  -1.15079  -1.15017  -1.15008
 Alpha  occ. eigenvalues --   -1.14523  -1.14464  -1.14390  -1.14265  -1.14053
 Alpha  occ. eigenvalues --   -1.14040  -1.14008  -1.13687  -1.13635  -1.13565
 Alpha  occ. eigenvalues --   -1.13562  -1.13539  -1.13493  -1.13384  -1.13346
 Alpha  occ. eigenvalues --   -0.22380  -0.14190  -0.13228  -0.12462
 Alpha virt. eigenvalues --   -0.05356  -0.04200  -0.03965  -0.03861  -0.03280
 Alpha virt. eigenvalues --   -0.02995  -0.01100  -0.00319  -0.00216   0.00295
 Alpha virt. eigenvalues --    0.00819   0.00988   0.01143   0.01159   0.01234

  Beta  occ. eigenvalues --  -38.45067 -38.45067 -38.44352 -38.44352 -38.43758
  Beta  occ. eigenvalues --  -38.43752 -38.43580  -2.21217  -2.21216  -2.20486
  Beta  occ. eigenvalues --   -2.20482  -2.20077  -2.19998  -2.19903  -1.15180
  Beta  occ. eigenvalues --   -1.15089  -1.14949  -1.14939  -1.14882  -1.14863
  Beta  occ. eigenvalues --   -1.14516  -1.14461  -1.14388  -1.14262  -1.13999
  Beta  occ. eigenvalues --   -1.13997  -1.13987  -1.13589  -1.13558  -1.13555
  Beta  occ. eigenvalues --   -1.13536  -1.13483  -1.13429  -1.13376  -1.13338
  Beta  occ. eigenvalues --   -0.21439  -0.13775  -0.12067
  Beta virt. eigenvalues --   -0.08938  -0.05376  -0.03857  -0.03565  -0.03166
  Beta virt. eigenvalues --   -0.02334  -0.02317  -0.01015  -0.00194  -0.00104
  Beta virt. eigenvalues --    0.00321   0.00871   0.00992   0.01153   0.01219

 Mulliken charges and spin densities:
               1          2
     1  Na   0.278240   0.516935
     2  Na  -0.134971   0.023411
     3  Na  -0.064991   0.002829
     4  Na  -0.142770  -0.031253
     5  Na   0.276966   0.516763
     6  Na  -0.142999  -0.030964
     7  Na  -0.069475   0.002278
 Sum of Mulliken charges =  -0.00000   1.00000

 Dipole moment (field-independent basis, Debye):
    X=              0.0027    Y=             -0.1205    Z=              0.0016  Tot=              0.1205
 Quadrupole moment (field-independent basis, Debye-Ang):
   XX=            -60.3293   YY=            -75.6486   ZZ=            -63.5300
   XY=              0.0034   XZ=             -0.0097   YZ=             -0.0014

 Normal termination of Gaussian 16 at Mon Nov 13 20:45:07 2023.
