 Gaussian 16, Revision B.01,
 Gaussian 16:  ES64L-G16RevB.01 20-Dec-2017

 -------------------------
 #P B3LYP/6-311+g(d) force
 -------------------------

 ------------------------------
 Gaussian input prepared by ASE
 ------------------------------
 Symbolic Z-matrix:
 Charge =  0 Multiplicity = 2

                         Standard orientation:
 ---------------------------------------------------------------------
 Center     Atomic      Atomic             Coordinates (Angstroms)
 Number     Number       Type             X           Y           Z
 ---------------------------------------------------------------------
      1         11           0        1.585836    0.720036    1.128852
      2         11           0       -0.858982    2.459505    0.992778
      3         11           0       -3.633034   -0.605189   -0.877308
      4         11           0       -0.690285   -0.059703   -0.640749
      5         11           0        1.873173    0.938443   -1.850517
      6         11           0        1.785347   -1.754475   -0.553895
      7         11           0       -0.062054   -1.698618    1.800838
 ---------------------------------------------------------------------

 SCF Done:  E(UB3LYP) =  -1136.09907305     A.U. after   23 cycles

 The electronic state is 2-A.
 Alpha  occ. eigenvalues --  -38.44681 -38.43902 -38.43746 -38.43669 -38.43439
 Alpha  occ. eigenvalues --  -38.43286 -38.42689  -2.20488  -2.19902  -2.19865
 Alpha  occ. eigenvalues --   -2.19645  -2.19435  -2.19367  -2.18972  -1.14191
 Alpha  occ. eigenvalues --   -1.14107  -1.14105  -1.13752  -1.13654  -1.13592
 Alpha  occ. eigenvalues --   -1.13576  -1.13509  -1.13411  -1.13337  -1.13281
 Alpha  occ. eigenvalues --   -1.13227  -1.13208  -1.13093  -1.13067  -1.13041
 Alpha  occ. eigenvalues --   -1.12978  -1.12898  -1.12672  -1.12605  -1.12545
 Alpha  occ. eigenvalues --   -0.20082  -0.13147  -0.12330  -0.11966
 Alpha virt. eigenvalues --   -0.05749  -0.04415  -0.03906  -0.03172  -0.02962
 Alpha virt. eigenvalues --   -0.02709  -0.01456  -0.00719  -0.00590   0.00255
 Alpha virt. eigenvalues --    0.00403   0.00635   0.00707   0.00929   0.01027

  Beta  occ. eigenvalues --  -38.44639 -38.43855 -38.43716 -38.43618 -38.43399
  Beta  occ. eigenvalues --  -38.43269 -38.42661  -2.20411  -2.19818  -2.19779
  Beta  occ. eigenvalues --   -2.19594  -2.19369  -2.19339  -2.18928  -1.14133
  Beta  occ. eigenvalues --   -1.14058  -1.14054  -1.13701  -1.13581  -1.13521
  Beta  occ. eigenvalues --   -1.13512  -1.13445  -1.13339  -1.13305  -1.13223
  Beta  occ. eigenvalues --   -1.13198  -1.13175  -1.13050  -1.13021  -1.12981
  Beta  occ. eigenvalues --   -1.12960  -1.12852  -1.12606  -1.12554  -1.12529
  Beta  occ. eigenvalues --   -0.19295  -0.12650  -0.11754
  Beta virt. eigenvalues --   -0.08311  -0.05368  -0.04229  -0.03638  -0.02845
  Beta virt. eigenvalues --   -0.02457  -0.01791  -0.01265  -0.00632  -0.00337
  Beta virt. eigenvalues --    0.00314   0.00512   0.00719   0.00833   0.00946

 Mulliken charges and spin densities:
               1          2
     1  Na   0.102868   0.378864
     2  Na  -0.035756   0.171517
     3  Na   0.405628   0.075138
     4  Na  -1.233767  -0.230470
     5  Na   0.441823   0.172328
     6  Na   0.109245   0.167572
     7  Na   0.209959   0.265051
 Sum of Mulliken charges =  -0.00000   1.00000

 Dipole moment (field-independent basis, Debye):
    X=             -0.3368    Y=              0.1228    Z=             -0.0168  Tot=              0.3589
 Quadrupole moment (field-independent basis, Debye-Ang):
   XX=            -58.6206   YY=            -69.5860   ZZ=            -63.9521
   XY=             -0.0667   XZ=             -1.0252   YZ=              1.5567

 Normal termination of Gaussian 16 at Mon Nov 13 20:12:09 2023.
