 Gaussian 16, Revision B.01,
 Gaussian 16:  ES64L-G16RevB.01 20-Dec-2017

 -------------------------
 #P B3LYP/6-311+g(d) force
 -------------------------

 ------------------------------
 Gaussian input prepared by ASE
 ------------------------------
 Symbolic Z-matrix:
 Charge =  0 Multiplicity = 2

                         Standard orientation:
 ---------------------------------------------------------------------
 Center     Atomic      Atomic             Coordinates (Angstroms)
 Number     Number       Type             X           Y           Z
 ---------------------------------------------------------------------
      1         11           0        0.327118   -0.355397    1.503360
      2         11           0       -2.274536   -1.676479    0.802323
      3         11           0       -3.833353   -0.342254   -1.386571
      4         11           0       -1.881068    1.243157    0.247173
      5         11           0        0.933411    2.283445    0.224436
      6         11           0        1.937783   -0.252105   -1.029083
      7         11           0        4.790644   -0.900367   -0.361639
 ---------------------------------------------------------------------

 SCF Done:  E(UB3LYP) =  -1136.09922369     A.U. after   22 cycles

 The electronic state is 2-A.
 Alpha  occ. eigenvalues --  -38.44194 -38.44083 -38.43976 -38.43919 -38.43808
 Alpha  occ. eigenvalues --  -38.43758 -38.43722  -2.20300  -2.20086  -2.19953
 Alpha  occ. eigenvalues --   -2.19913  -2.19837  -2.19724  -2.19561  -1.14089
 Alpha  occ. eigenvalues --   -1.14038  -1.13957  -1.13860  -1.13744  -1.13706
 Alpha  occ. eigenvalues --   -1.13670  -1.13644  -1.13620  -1.13607  -1.13581
 Alpha  occ. eigenvalues --   -1.13551  -1.13451  -1.13440  -1.13424  -1.13345
 Alpha  occ. eigenvalues --   -1.13341  -1.13284  -1.13211  -1.13208  -1.13194
 Alpha  occ. eigenvalues --   -0.19327  -0.14707  -0.11761  -0.11467
 Alpha virt. eigenvalues --   -0.06382  -0.05108  -0.04668  -0.03270  -0.02964
 Alpha virt. eigenvalues --   -0.02200  -0.02040  -0.01082  -0.00537  -0.00188
 Alpha virt. eigenvalues --   -0.00035   0.00190   0.00481   0.00699   0.00747

  Beta  occ. eigenvalues --  -38.44120 -38.44036 -38.43969 -38.43875 -38.43777
  Beta  occ. eigenvalues --  -38.43763 -38.43697  -2.20171  -2.20007  -2.19941
  Beta  occ. eigenvalues --   -2.19863  -2.19756  -2.19679  -2.19571  -1.13991
  Beta  occ. eigenvalues --   -1.13958  -1.13863  -1.13810  -1.13675  -1.13654
  Beta  occ. eigenvalues --   -1.13631  -1.13613  -1.13579  -1.13575  -1.13543
  Beta  occ. eigenvalues --   -1.13491  -1.13395  -1.13382  -1.13370  -1.13315
  Beta  occ. eigenvalues --   -1.13304  -1.13250  -1.13217  -1.13214  -1.13200
  Beta  occ. eigenvalues --   -0.18597  -0.14435  -0.11457
  Beta virt. eigenvalues --   -0.07487  -0.06201  -0.04941  -0.04062  -0.03014
  Beta virt. eigenvalues --   -0.02559  -0.01761  -0.01519  -0.01017  -0.00175
  Beta virt. eigenvalues --   -0.00102   0.00054   0.00397   0.00531   0.00758

 Mulliken charges and spin densities:
               1          2
     1  Na  -0.255945   0.323813
     2  Na   0.173462  -0.009343
     3  Na   0.615694   0.093467
     4  Na  -0.406093   0.510905
     5  Na   0.253971   0.070344
     6  Na  -0.589292   0.123834
     7  Na   0.208202  -0.113020
 Sum of Mulliken charges =  -0.00000   1.00000

 Dipole moment (field-independent basis, Debye):
    X=             -0.2370    Y=              0.4048    Z=              0.2605  Tot=              0.5366
 Quadrupole moment (field-independent basis, Debye-Ang):
   XX=            -63.3227   YY=            -69.3235   ZZ=            -68.1822
   XY=              2.8994   XZ=              4.3992   YZ=             -0.4627

 Normal termination of Gaussian 16 at Mon Nov 13 15:42:05 2023.
