 Gaussian 16, Revision B.01,
 Gaussian 16:  ES64L-G16RevB.01 20-Dec-2017

 -------------------------
 #P B3LYP/6-311+g(d) force
 -------------------------

 ------------------------------
 Gaussian input prepared by ASE
 ------------------------------
 Symbolic Z-matrix:
 Charge =  0 Multiplicity = 2

                         Standard orientation:
 ---------------------------------------------------------------------
 Center     Atomic      Atomic             Coordinates (Angstroms)
 Number     Number       Type             X           Y           Z
 ---------------------------------------------------------------------
      1         11           0       -0.783789    1.670537   -0.179428
      2         11           0       -1.205023   -1.808901    0.378194
      3         11           0       -2.530299    0.374666    1.651946
      4         11           0       -2.503468   -0.129657   -1.431554
      5         11           0        0.877867   -0.462452   -0.963303
      6         11           0        3.403112   -1.234300    0.400584
      7         11           0        2.741600    1.590108    0.143561
 ---------------------------------------------------------------------

 SCF Done:  E(UB3LYP) =  -1136.07949353     A.U. after   27 cycles

 The electronic state is 2-A.
 Alpha  occ. eigenvalues --  -38.45377 -38.44993 -38.44607 -38.44323 -38.43751
 Alpha  occ. eigenvalues --  -38.43549 -38.42918  -2.21466  -2.20893  -2.20652
 Alpha  occ. eigenvalues --   -2.20253  -2.19953  -2.19637  -2.19040  -1.15235
 Alpha  occ. eigenvalues --   -1.15147  -1.15074  -1.14652  -1.14558  -1.14509
 Alpha  occ. eigenvalues --   -1.14384  -1.14300  -1.14248  -1.13996  -1.13893
 Alpha  occ. eigenvalues --   -1.13866  -1.13801  -1.13636  -1.13545  -1.13269
 Alpha  occ. eigenvalues --   -1.13256  -1.13212  -1.12712  -1.12675  -1.12652
 Alpha  occ. eigenvalues --   -0.20275  -0.15435  -0.11495  -0.11143
 Alpha virt. eigenvalues --   -0.07035  -0.05478  -0.04221  -0.03069  -0.02453
 Alpha virt. eigenvalues --   -0.02193  -0.02057  -0.00776  -0.00653  -0.00008
 Alpha virt. eigenvalues --    0.00238   0.00312   0.00548   0.00746   0.00825

  Beta  occ. eigenvalues --  -38.45331 -38.44987 -38.44516 -38.44325 -38.43708
  Beta  occ. eigenvalues --  -38.43520 -38.42890  -2.21392  -2.20882  -2.20484
  Beta  occ. eigenvalues --   -2.20257  -2.19881  -2.19594  -2.18999  -1.15195
  Beta  occ. eigenvalues --   -1.15087  -1.14966  -1.14645  -1.14549  -1.14502
  Beta  occ. eigenvalues --   -1.14281  -1.14168  -1.14136  -1.13994  -1.13890
  Beta  occ. eigenvalues --   -1.13868  -1.13757  -1.13590  -1.13457  -1.13249
  Beta  occ. eigenvalues --   -1.13212  -1.13135  -1.12678  -1.12639  -1.12584
  Beta  occ. eigenvalues --   -0.19450  -0.15163  -0.10918
  Beta virt. eigenvalues --   -0.07318  -0.06750  -0.05373  -0.03731  -0.03000
  Beta virt. eigenvalues --   -0.02336  -0.01403  -0.01217  -0.00762  -0.00157
  Beta virt. eigenvalues --    0.00046   0.00290   0.00328   0.00730   0.00795

 Mulliken charges and spin densities:
               1          2
     1  Na  -0.087745   0.112917
     2  Na  -0.224836   0.256888
     3  Na  -0.543265   0.296416
     4  Na   0.939791   0.052846
     5  Na  -0.459658   0.283167
     6  Na   0.522619   0.046464
     7  Na  -0.146906  -0.048697
 Sum of Mulliken charges =  -0.00000   1.00000

 Dipole moment (field-independent basis, Debye):
    X=              0.5813    Y=             -0.0124    Z=              0.1126  Tot=              0.5923
 Quadrupole moment (field-independent basis, Debye-Ang):
   XX=            -48.2435   YY=            -77.4790   ZZ=            -68.7285
   XY=             -0.2511   XZ=              4.8810   YZ=             -0.2099

 Normal termination of Gaussian 16 at Mon Nov 13 18:00:29 2023.
