 Gaussian 16, Revision B.01,
 Gaussian 16:  ES64L-G16RevB.01 20-Dec-2017

 -------------------------
 #P B3LYP/6-311+g(d) force
 -------------------------

 ------------------------------
 Gaussian input prepared by ASE
 ------------------------------
 Symbolic Z-matrix:
 Charge =  0 Multiplicity = 2

                         Standard orientation:
 ---------------------------------------------------------------------
 Center     Atomic      Atomic             Coordinates (Angstroms)
 Number     Number       Type             X           Y           Z
 ---------------------------------------------------------------------
      1         11           0       -0.039176    0.012942    1.613094
      2         11           0        1.036734    2.249975   -0.069931
      3         11           0       -1.922969    1.883767    0.220675
      4         11           0       -3.346353   -0.528959   -0.860234
      5         11           0       -0.896850   -2.162018   -0.269127
      6         11           0        1.994701   -1.866930    0.463186
      7         11           0        3.173913    0.411223   -1.097662
 ---------------------------------------------------------------------

 SCF Done:  E(UB3LYP) =  -1136.10881430     A.U. after   21 cycles

 The electronic state is 2-A.
 Alpha  occ. eigenvalues --  -38.44292 -38.44232 -38.43940 -38.43927 -38.43926
 Alpha  occ. eigenvalues --  -38.43765 -38.43592  -2.20205  -2.20144  -2.20056
 Alpha  occ. eigenvalues --   -2.19910  -2.19904  -2.19732  -2.19563  -1.13921
 Alpha  occ. eigenvalues --   -1.13891  -1.13875  -1.13856  -1.13834  -1.13819
 Alpha  occ. eigenvalues --   -1.13811  -1.13758  -1.13732  -1.13610  -1.13589
 Alpha  occ. eigenvalues --   -1.13560  -1.13511  -1.13500  -1.13472  -1.13376
 Alpha  occ. eigenvalues --   -1.13357  -1.13323  -1.13218  -1.13195  -1.13182
 Alpha  occ. eigenvalues --   -0.19355  -0.14528  -0.12950  -0.11003
 Alpha virt. eigenvalues --   -0.05958  -0.05412  -0.04327  -0.04144  -0.03106
 Alpha virt. eigenvalues --   -0.01749  -0.01727  -0.00818  -0.00272  -0.00142
 Alpha virt. eigenvalues --   -0.00086   0.00326   0.00634   0.00746   0.00857

  Beta  occ. eigenvalues --  -38.44226 -38.44179 -38.43916 -38.43914 -38.43859
  Beta  occ. eigenvalues --  -38.43757 -38.43582  -2.20083  -2.20045  -2.19913
  Beta  occ. eigenvalues --   -2.19893  -2.19886  -2.19724  -2.19554  -1.13840
  Beta  occ. eigenvalues --   -1.13822  -1.13806  -1.13798  -1.13755  -1.13743
  Beta  occ. eigenvalues --   -1.13731  -1.13690  -1.13653  -1.13588  -1.13574
  Beta  occ. eigenvalues --   -1.13522  -1.13477  -1.13471  -1.13410  -1.13361
  Beta  occ. eigenvalues --   -1.13344  -1.13288  -1.13205  -1.13188  -1.13138
  Beta  occ. eigenvalues --   -0.18789  -0.13915  -0.12581
  Beta virt. eigenvalues --   -0.07467  -0.05735  -0.05187  -0.04248  -0.03468
  Beta virt. eigenvalues --   -0.02318  -0.01573  -0.01104  -0.00728  -0.00167
  Beta virt. eigenvalues --   -0.00058   0.00129   0.00429   0.00699   0.00905

 Mulliken charges and spin densities:
               1          2
     1  Na  -0.771778  -0.424527
     2  Na  -0.096800   0.348839
     3  Na   0.575551   0.223092
     4  Na   0.100712   0.036772
     5  Na  -0.320437   0.326460
     6  Na   0.746895   0.362269
     7  Na  -0.234143   0.127095
 Sum of Mulliken charges =  -0.00000   1.00000

 Dipole moment (field-independent basis, Debye):
    X=             -0.0978    Y=             -0.0775    Z=             -0.0781  Tot=              0.1472
 Quadrupole moment (field-independent basis, Debye-Ang):
   XX=            -60.9337   YY=            -68.7866   ZZ=            -70.6009
   XY=             -2.9483   XZ=              0.3636   YZ=             -0.0937

 Normal termination of Gaussian 16 at Mon Nov 13 16:08:18 2023.
