 Gaussian 16, Revision B.01,
 Gaussian 16:  ES64L-G16RevB.01 20-Dec-2017

 -------------------------
 #P B3LYP/6-311+g(d) force
 -------------------------

 ------------------------------
 Gaussian input prepared by ASE
 ------------------------------
 Symbolic Z-matrix:
 Charge =  0 Multiplicity = 2

                         Standard orientation:
 ---------------------------------------------------------------------
 Center     Atomic      Atomic             Coordinates (Angstroms)
 Number     Number       Type             X           Y           Z
 ---------------------------------------------------------------------
      1         11           0       -0.842712    1.890175    0.349589
      2         11           0        1.911940   -1.557684   -0.680801
      3         11           0       -0.574656   -1.714004    0.888699
      4         11           0        1.013655    0.272735    1.811479
      5         11           0        1.901443    1.382708   -0.610060
      6         11           0       -0.336931   -0.058925   -1.452561
      7         11           0       -3.072740   -0.215006   -0.306344
 ---------------------------------------------------------------------

 SCF Done:  E(UB3LYP) =  -1136.08103459     A.U. after   21 cycles

 The electronic state is 2-A.
 Alpha  occ. eigenvalues --  -38.44553 -38.44119 -38.44112 -38.43648 -38.43524
 Alpha  occ. eigenvalues --  -38.43315 -38.43051  -2.20755  -2.20489  -2.20064
 Alpha  occ. eigenvalues --   -2.19811  -2.19622  -2.19468  -2.19204  -1.14561
 Alpha  occ. eigenvalues --   -1.14496  -1.14348  -1.14299  -1.14287  -1.14179
 Alpha  occ. eigenvalues --   -1.13739  -1.13713  -1.13696  -1.13504  -1.13467
 Alpha  occ. eigenvalues --   -1.13428  -1.13354  -1.13254  -1.13176  -1.13139
 Alpha  occ. eigenvalues --   -1.13091  -1.12972  -1.12905  -1.12852  -1.12736
 Alpha  occ. eigenvalues --   -0.21459  -0.13985  -0.12513  -0.12371
 Alpha virt. eigenvalues --   -0.05527  -0.03999  -0.03792  -0.03693  -0.03092
 Alpha virt. eigenvalues --   -0.02960  -0.01363  -0.00405  -0.00213   0.00307
 Alpha virt. eigenvalues --    0.00678   0.00921   0.01012   0.01087   0.01134

  Beta  occ. eigenvalues --  -38.44459 -38.44117 -38.44039 -38.43623 -38.43499
  Beta  occ. eigenvalues --  -38.43280 -38.43034  -2.20587  -2.20361  -2.20062
  Beta  occ. eigenvalues --   -2.19773  -2.19582  -2.19411  -2.19180  -1.14452
  Beta  occ. eigenvalues --   -1.14379  -1.14230  -1.14211  -1.14187  -1.14091
  Beta  occ. eigenvalues --   -1.13726  -1.13699  -1.13695  -1.13476  -1.13443
  Beta  occ. eigenvalues --   -1.13350  -1.13330  -1.13184  -1.13154  -1.13092
  Beta  occ. eigenvalues --   -1.13012  -1.12940  -1.12891  -1.12779  -1.12726
  Beta  occ. eigenvalues --   -0.20643  -0.13698  -0.12089
  Beta virt. eigenvalues --   -0.08141  -0.05450  -0.04001  -0.03599  -0.02972
  Beta virt. eigenvalues --   -0.02230  -0.01868  -0.01263  -0.00386  -0.00004
  Beta virt. eigenvalues --    0.00338   0.00715   0.00911   0.01047   0.01091

 Mulliken charges and spin densities:
               1          2
     1  Na  -0.016583   0.165572
     2  Na   0.008761  -0.008552
     3  Na   0.300918   0.251344
     4  Na  -0.200837   0.331907
     5  Na   0.294243   0.008740
     6  Na  -0.767005   0.301980
     7  Na   0.380504  -0.050992
 Sum of Mulliken charges =  -0.00000   1.00000

 Dipole moment (field-independent basis, Debye):
    X=             -0.3362    Y=             -0.1283    Z=              0.1539  Tot=              0.3913
 Quadrupole moment (field-independent basis, Debye-Ang):
   XX=            -56.1213   YY=            -72.7098   ZZ=            -67.1852
   XY=             -0.0169   XZ=             -0.9216   YZ=              0.2932

 Normal termination of Gaussian 16 at Mon Nov 13 19:30:16 2023.
