 Gaussian 16, Revision B.01,
 Gaussian 16:  ES64L-G16RevB.01 20-Dec-2017

 -------------------------
 #P B3LYP/6-311+g(d) force
 -------------------------

 ------------------------------
 Gaussian input prepared by ASE
 ------------------------------
 Symbolic Z-matrix:
 Charge =  0 Multiplicity = 2

                         Standard orientation:
 ---------------------------------------------------------------------
 Center     Atomic      Atomic             Coordinates (Angstroms)
 Number     Number       Type             X           Y           Z
 ---------------------------------------------------------------------
      1         11           0        0.000553    0.033394    1.628353
      2         11           0       -0.000543    0.032524   -1.627929
      3         11           0        2.534540   -0.729329   -0.000555
      4         11           0        1.388095    1.675443   -0.000634
      5         11           0       -0.004481   -1.970763    0.000813
      6         11           0       -1.379673    1.680795    0.000330
      7         11           0       -2.538491   -0.722065   -0.000379
 ---------------------------------------------------------------------

 SCF Done:  E(UB3LYP) =  -1136.04135500     A.U. after   18 cycles

 The electronic state is 2-A.
 Alpha  occ. eigenvalues --  -38.44635 -38.44634 -38.44277 -38.44275 -38.44019
 Alpha  occ. eigenvalues --  -38.44011 -38.43872  -2.21066  -2.21042  -2.20421
 Alpha  occ. eigenvalues --   -2.20417  -2.20306  -2.20255  -2.20153  -1.15147
 Alpha  occ. eigenvalues --   -1.14987  -1.14919  -1.14798  -1.14786  -1.14681
 Alpha  occ. eigenvalues --   -1.14441  -1.14318  -1.14199  -1.14106  -1.14008
 Alpha  occ. eigenvalues --   -1.14004  -1.13977  -1.13840  -1.13818  -1.13813
 Alpha  occ. eigenvalues --   -1.13711  -1.13680  -1.13675  -1.13605  -1.13556
 Alpha  occ. eigenvalues --   -0.22376  -0.14491  -0.12888  -0.12335
 Alpha virt. eigenvalues --   -0.05540  -0.04220  -0.03915  -0.03847  -0.02974
 Alpha virt. eigenvalues --   -0.02479  -0.01383  -0.00382  -0.00038   0.00306
 Alpha virt. eigenvalues --    0.00736   0.00839   0.01073   0.01181   0.01277

  Beta  occ. eigenvalues --  -38.44538 -38.44537 -38.44267 -38.44265 -38.44000
  Beta  occ. eigenvalues --  -38.43992 -38.43852  -2.20897  -2.20869  -2.20407
  Beta  occ. eigenvalues --   -2.20403  -2.20282  -2.20230  -2.20124  -1.15068
  Beta  occ. eigenvalues --   -1.14883  -1.14789  -1.14705  -1.14678  -1.14551
  Beta  occ. eigenvalues --   -1.14437  -1.14304  -1.14178  -1.14093  -1.13981
  Beta  occ. eigenvalues --   -1.13942  -1.13917  -1.13798  -1.13748  -1.13723
  Beta  occ. eigenvalues --   -1.13699  -1.13659  -1.13598  -1.13575  -1.13549
  Beta  occ. eigenvalues --   -0.21558  -0.14074  -0.12493
  Beta virt. eigenvalues --   -0.08057  -0.05589  -0.04196  -0.03843  -0.02821
  Beta virt. eigenvalues --   -0.02031  -0.01437  -0.01302  -0.00349   0.00100
  Beta virt. eigenvalues --    0.00339   0.00744   0.00831   0.01078   0.01198

 Mulliken charges and spin densities:
               1          2
     1  Na  -0.417831   0.462921
     2  Na  -0.418350   0.462790
     3  Na  -0.056004  -0.059543
     4  Na   0.282698   0.066955
     5  Na   0.384901   0.060830
     6  Na   0.282194   0.066272
     7  Na  -0.057609  -0.060225
 Sum of Mulliken charges =  -0.00000   1.00000

 Dipole moment (field-independent basis, Debye):
    X=             -0.0030    Y=             -0.2088    Z=              0.0002  Tot=              0.2088
 Quadrupole moment (field-independent basis, Debye-Ang):
   XX=            -56.6237   YY=            -71.5026   ZZ=            -69.8562
   XY=             -0.0055   XZ=             -0.0019   YZ=             -0.0008

 Normal termination of Gaussian 16 at Mon Nov 13 19:44:59 2023.
