 Gaussian 16, Revision B.01,
 Gaussian 16:  ES64L-G16RevB.01 20-Dec-2017

 -------------------------
 #P B3LYP/6-311+g(d) force
 -------------------------

 ------------------------------
 Gaussian input prepared by ASE
 ------------------------------
 Symbolic Z-matrix:
 Charge =  0 Multiplicity = 2

                         Standard orientation:
 ---------------------------------------------------------------------
 Center     Atomic      Atomic             Coordinates (Angstroms)
 Number     Number       Type             X           Y           Z
 ---------------------------------------------------------------------
      1         11           0       -0.001846   -0.000683   -1.694632
      2         11           0        1.231394    1.636495   -0.002415
      3         11           0       -2.199544   -0.652933   -0.001158
      4         11           0       -1.228089    1.636149    0.004765
      5         11           0        0.002935   -0.006951    1.697087
      6         11           0       -0.002767   -1.953556   -0.002810
      7         11           0        2.197918   -0.658521   -0.000837
 ---------------------------------------------------------------------

 SCF Done:  E(UB3LYP) =  -1135.98259300     A.U. after   24 cycles

 The electronic state is 2-A.
 Alpha  occ. eigenvalues --  -38.45481 -38.45470 -38.45194 -38.45182 -38.44932
 Alpha  occ. eigenvalues --  -38.44922 -38.44888  -2.22023  -2.21977  -2.21691
 Alpha  occ. eigenvalues --   -2.21537  -2.21359  -2.21216  -2.21161  -1.16402
 Alpha  occ. eigenvalues --   -1.16138  -1.15968  -1.15932  -1.15914  -1.15844
 Alpha  occ. eigenvalues --   -1.15711  -1.15635  -1.15257  -1.15231  -1.15052
 Alpha  occ. eigenvalues --   -1.15043  -1.14968  -1.14811  -1.14754  -1.14720
 Alpha  occ. eigenvalues --   -1.14700  -1.14601  -1.14572  -1.14499  -1.14306
 Alpha  occ. eigenvalues --   -0.23439  -0.14303  -0.13450  -0.13282
 Alpha virt. eigenvalues --   -0.05407  -0.04030  -0.04030  -0.04019  -0.03563
 Alpha virt. eigenvalues --   -0.02856  -0.00758  -0.00310  -0.00129   0.00269
 Alpha virt. eigenvalues --    0.01038   0.01078   0.01164   0.01337   0.01369

  Beta  occ. eigenvalues --  -38.45374 -38.45363 -38.45171 -38.45160 -38.44915
  Beta  occ. eigenvalues --  -38.44905 -38.44865  -2.21858  -2.21786  -2.21639
  Beta  occ. eigenvalues --   -2.21508  -2.21328  -2.21193  -2.21137  -1.16348
  Beta  occ. eigenvalues --   -1.16098  -1.15903  -1.15855  -1.15793  -1.15723
  Beta  occ. eigenvalues --   -1.15626  -1.15568  -1.15178  -1.15161  -1.15010
  Beta  occ. eigenvalues --   -1.14932  -1.14854  -1.14798  -1.14659  -1.14631
  Beta  occ. eigenvalues --   -1.14593  -1.14588  -1.14563  -1.14490  -1.14298
  Beta  occ. eigenvalues --   -0.22564  -0.13834  -0.13001
  Beta virt. eigenvalues --   -0.08883  -0.05449  -0.03986  -0.03958  -0.02952
  Beta virt. eigenvalues --   -0.02540  -0.01832  -0.00690  -0.00268   0.00017
  Beta virt. eigenvalues --    0.00289   0.01061   0.01079   0.01194   0.01394

 Mulliken charges and spin densities:
               1          2
     1  Na  -0.269803   0.434589
     2  Na   0.190105   0.051060
     3  Na  -0.106090  -0.024384
     4  Na   0.192859   0.052044
     5  Na  -0.264938   0.435888
     6  Na   0.361136   0.074720
     7  Na  -0.103268  -0.023917
 Sum of Mulliken charges =  -0.00000   1.00000

 Dipole moment (field-independent basis, Debye):
    X=              0.0029    Y=             -0.1473    Z=              0.0057  Tot=              0.1475
 Quadrupole moment (field-independent basis, Debye-Ang):
   XX=            -63.8969   YY=            -71.0752   ZZ=            -67.1569
   XY=              0.0036   XZ=             -0.0067   YZ=              0.0103

 Normal termination of Gaussian 16 at Mon Nov 13 20:50:46 2023.
