 Gaussian 16, Revision B.01,
 Gaussian 16:  ES64L-G16RevB.01 20-Dec-2017

 -------------------------
 #P B3LYP/6-311+g(d) force
 -------------------------

 ------------------------------
 Gaussian input prepared by ASE
 ------------------------------
 Symbolic Z-matrix:
 Charge =  0 Multiplicity = 2

                         Standard orientation:
 ---------------------------------------------------------------------
 Center     Atomic      Atomic             Coordinates (Angstroms)
 Number     Number       Type             X           Y           Z
 ---------------------------------------------------------------------
      1         11           0       -0.910358   -0.824520   -0.867026
      2         11           0        1.833126    2.972791   -1.113812
      3         11           0       -3.776876    0.045412   -0.742800
      4         11           0       -2.092943    0.065729    1.734538
      5         11           0        0.585446    1.108371    0.878957
      6         11           0        2.735791   -0.959054    1.246531
      7         11           0        1.625814   -2.408728   -1.136388
 ---------------------------------------------------------------------

 SCF Done:  E(UB3LYP) =  -1136.09918371     A.U. after   23 cycles

 The electronic state is 2-A.
 Alpha  occ. eigenvalues --  -38.45313 -38.45280 -38.44487 -38.44065 -38.43454
 Alpha  occ. eigenvalues --  -38.43290 -38.42676  -2.21190  -2.21168  -2.20478
 Alpha  occ. eigenvalues --   -2.20130  -2.19283  -2.19184  -2.18743  -1.14882
 Alpha  occ. eigenvalues --   -1.14879  -1.14855  -1.14845  -1.14809  -1.14786
 Alpha  occ. eigenvalues --   -1.14240  -1.14106  -1.14074  -1.13834  -1.13781
 Alpha  occ. eigenvalues --   -1.13748  -1.12982  -1.12911  -1.12909  -1.12871
 Alpha  occ. eigenvalues --   -1.12836  -1.12803  -1.12442  -1.12381  -1.12380
 Alpha  occ. eigenvalues --   -0.18881  -0.14273  -0.11833  -0.10903
 Alpha virt. eigenvalues --   -0.06881  -0.05215  -0.04170  -0.03227  -0.02978
 Alpha virt. eigenvalues --   -0.02347  -0.02004  -0.00895  -0.00727  -0.00027
 Alpha virt. eigenvalues --    0.00134   0.00260   0.00515   0.00671   0.00815

  Beta  occ. eigenvalues --  -38.45296 -38.45269 -38.44434 -38.44032 -38.43399
  Beta  occ. eigenvalues --  -38.43286 -38.42650  -2.21157  -2.21148  -2.20381
  Beta  occ. eigenvalues --   -2.20075  -2.19181  -2.19178  -2.18707  -1.14868
  Beta  occ. eigenvalues --   -1.14860  -1.14834  -1.14816  -1.14782  -1.14774
  Beta  occ. eigenvalues --   -1.14175  -1.14037  -1.13999  -1.13782  -1.13745
  Beta  occ. eigenvalues --   -1.13693  -1.12916  -1.12859  -1.12840  -1.12837
  Beta  occ. eigenvalues --   -1.12833  -1.12795  -1.12431  -1.12365  -1.12273
  Beta  occ. eigenvalues --   -0.18217  -0.14138  -0.11379
  Beta virt. eigenvalues --   -0.07296  -0.06613  -0.04648  -0.03949  -0.02932
  Beta virt. eigenvalues --   -0.02711  -0.02109  -0.01423  -0.00599  -0.00454
  Beta virt. eigenvalues --    0.00094   0.00187   0.00419   0.00608   0.00759

 Mulliken charges and spin densities:
               1          2
     1  Na  -2.565748   0.497348
     2  Na   0.211106   0.134401
     3  Na  -0.015498  -0.043657
     4  Na   0.527545  -0.011802
     5  Na   0.467619   0.304426
     6  Na  -0.429182   0.185487
     7  Na   1.804158  -0.066202
 Sum of Mulliken charges =  -0.00000   1.00000

 Dipole moment (field-independent basis, Debye):
    X=             -0.9813    Y=             -0.3316    Z=              0.1971  Tot=              1.0544
 Quadrupole moment (field-independent basis, Debye-Ang):
   XX=            -48.9430   YY=            -75.4772   ZZ=            -68.1950
   XY=             -3.2735   XZ=              2.3590   YZ=             -3.2426

 Normal termination of Gaussian 16 at Mon Nov 13 15:28:10 2023.
