 Gaussian 16, Revision B.01,
 Gaussian 16:  ES64L-G16RevB.01 20-Dec-2017

 -------------------------
 #P B3LYP/6-311+g(d) force
 -------------------------

 ------------------------------
 Gaussian input prepared by ASE
 ------------------------------
 Symbolic Z-matrix:
 Charge =  0 Multiplicity = 2

                         Standard orientation:
 ---------------------------------------------------------------------
 Center     Atomic      Atomic             Coordinates (Angstroms)
 Number     Number       Type             X           Y           Z
 ---------------------------------------------------------------------
      1         11           0        0.458169    0.389162    0.481817
      2         11           0        3.368181    0.073416    1.142747
      3         11           0        2.183703   -1.417888   -1.171215
      4         11           0       -0.574305   -2.293456   -0.390754
      5         11           0       -3.222629   -1.334333    0.651876
      6         11           0       -2.294260    1.396991   -0.177726
      7         11           0        0.081141    3.186108   -0.536746
 ---------------------------------------------------------------------

 SCF Done:  E(UB3LYP) =  -1136.10724731     A.U. after   19 cycles

 The electronic state is 2-A.
 Alpha  occ. eigenvalues --  -38.44092 -38.43962 -38.43826 -38.43677 -38.43641
 Alpha  occ. eigenvalues --  -38.43629 -38.43568  -2.20092  -2.19953  -2.19854
 Alpha  occ. eigenvalues --   -2.19754  -2.19623  -2.19561  -2.19472  -1.13894
 Alpha  occ. eigenvalues --   -1.13828  -1.13755  -1.13716  -1.13684  -1.13609
 Alpha  occ. eigenvalues --   -1.13580  -1.13533  -1.13480  -1.13377  -1.13359
 Alpha  occ. eigenvalues --   -1.13345  -1.13331  -1.13278  -1.13242  -1.13208
 Alpha  occ. eigenvalues --   -1.13174  -1.13110  -1.13106  -1.13095  -1.13088
 Alpha  occ. eigenvalues --   -0.18988  -0.14495  -0.13079  -0.10269
 Alpha virt. eigenvalues --   -0.06110  -0.05163  -0.04578  -0.03699  -0.02568
 Alpha virt. eigenvalues --   -0.02263  -0.01268  -0.01086  -0.00437  -0.00250
 Alpha virt. eigenvalues --   -0.00095   0.00228   0.00705   0.00767   0.00890

  Beta  occ. eigenvalues --  -38.44058 -38.43951 -38.43749 -38.43667 -38.43605
  Beta  occ. eigenvalues --  -38.43594 -38.43556  -2.20039  -2.19937  -2.19840
  Beta  occ. eigenvalues --   -2.19609  -2.19566  -2.19495  -2.19451  -1.13870
  Beta  occ. eigenvalues --   -1.13751  -1.13715  -1.13681  -1.13649  -1.13583
  Beta  occ. eigenvalues --   -1.13574  -1.13487  -1.13456  -1.13314  -1.13276
  Beta  occ. eigenvalues --   -1.13272  -1.13248  -1.13232  -1.13197  -1.13161
  Beta  occ. eigenvalues --   -1.13127  -1.13096  -1.13075  -1.13072  -1.13052
  Beta  occ. eigenvalues --   -0.18498  -0.13929  -0.12718
  Beta virt. eigenvalues --   -0.06642  -0.05877  -0.05087  -0.04362  -0.03075
  Beta virt. eigenvalues --   -0.02174  -0.01912  -0.01104  -0.00695  -0.00315
  Beta virt. eigenvalues --    0.00086   0.00104   0.00385   0.00800   0.00881

 Mulliken charges and spin densities:
               1          2
     1  Na  -1.664451   0.518614
     2  Na   0.171381   0.372443
     3  Na   0.346781  -0.269077
     4  Na   0.140692   0.234095
     5  Na   0.637890   0.232280
     6  Na   0.065528  -0.007782
     7  Na   0.302180  -0.080573
 Sum of Mulliken charges =  -0.00000   1.00000

 Dipole moment (field-independent basis, Debye):
    X=              0.1063    Y=              0.1454    Z=             -0.6521  Tot=              0.6766
 Quadrupole moment (field-independent basis, Debye-Ang):
   XX=            -61.4902   YY=            -64.9996   ZZ=            -70.8789
   XY=             -0.0150   XZ=             -2.4389   YZ=             -1.2502

 Normal termination of Gaussian 16 at Mon Nov 13 14:59:25 2023.
