 Gaussian 16, Revision B.01,
 Gaussian 16:  ES64L-G16RevB.01 20-Dec-2017

 -------------------------
 #P B3LYP/6-311+g(d) force
 -------------------------

 ------------------------------
 Gaussian input prepared by ASE
 ------------------------------
 Symbolic Z-matrix:
 Charge =  0 Multiplicity = 2

                         Standard orientation:
 ---------------------------------------------------------------------
 Center     Atomic      Atomic             Coordinates (Angstroms)
 Number     Number       Type             X           Y           Z
 ---------------------------------------------------------------------
      1         11           0        0.454296    1.156856   -0.386720
      2         11           0       -0.133232   -0.528256    2.035485
      3         11           0        3.424777    1.087855   -0.017473
      4         11           0        1.848108   -1.457764   -0.010584
      5         11           0       -0.559017   -1.301283   -1.786367
      6         11           0       -2.609276   -0.947834    0.383930
      7         11           0       -2.425656    1.990427   -0.218271
 ---------------------------------------------------------------------

 SCF Done:  E(UB3LYP) =  -1136.10096982     A.U. after   21 cycles

 The electronic state is 2-A.
 Alpha  occ. eigenvalues --  -38.44666 -38.44633 -38.44482 -38.43613 -38.43503
 Alpha  occ. eigenvalues --  -38.43354 -38.43190  -2.20626  -2.20548  -2.20493
 Alpha  occ. eigenvalues --   -2.19630  -2.19583  -2.19367  -2.19258  -1.14388
 Alpha  occ. eigenvalues --   -1.14324  -1.14268  -1.14255  -1.14223  -1.14218
 Alpha  occ. eigenvalues --   -1.14168  -1.14098  -1.14046  -1.13480  -1.13305
 Alpha  occ. eigenvalues --   -1.13303  -1.13235  -1.13213  -1.13108  -1.13085
 Alpha  occ. eigenvalues --   -1.13046  -1.12982  -1.12923  -1.12873  -1.12835
 Alpha  occ. eigenvalues --   -0.20155  -0.14400  -0.11806  -0.11420
 Alpha virt. eigenvalues --   -0.06548  -0.04946  -0.03992  -0.03456  -0.02518
 Alpha virt. eigenvalues --   -0.02404  -0.02266  -0.00835  -0.00233   0.00165
 Alpha virt. eigenvalues --    0.00203   0.00444   0.00628   0.00787   0.00877

  Beta  occ. eigenvalues --  -38.44674 -38.44616 -38.44382 -38.43541 -38.43489
  Beta  occ. eigenvalues --  -38.43353 -38.43159  -2.20602  -2.20563  -2.20310
  Beta  occ. eigenvalues --   -2.19566  -2.19496  -2.19319  -2.19259  -1.14335
  Beta  occ. eigenvalues --   -1.14281  -1.14279  -1.14247  -1.14235  -1.14169
  Beta  occ. eigenvalues --   -1.14099  -1.13973  -1.13930  -1.13429  -1.13261
  Beta  occ. eigenvalues --   -1.13220  -1.13183  -1.13143  -1.13070  -1.13051
  Beta  occ. eigenvalues --   -1.12989  -1.12930  -1.12915  -1.12856  -1.12823
  Beta  occ. eigenvalues --   -0.19332  -0.14165  -0.11210
  Beta virt. eigenvalues --   -0.07644  -0.06431  -0.04911  -0.03146  -0.03037
  Beta virt. eigenvalues --   -0.02219  -0.01808  -0.01622  -0.00816  -0.00006
  Beta virt. eigenvalues --    0.00157   0.00249   0.00441   0.00792   0.00842

 Mulliken charges and spin densities:
               1          2
     1  Na  -1.482487   0.432459
     2  Na   0.072202   0.357262
     3  Na   0.376123  -0.319158
     4  Na   0.695469   0.254060
     5  Na   0.287898   0.233666
     6  Na   0.249899   0.017154
     7  Na  -0.199105   0.024557
 Sum of Mulliken charges =  -0.00000   1.00000

 Dipole moment (field-independent basis, Debye):
    X=              0.2509    Y=             -0.4114    Z=              0.2017  Tot=              0.5224
 Quadrupole moment (field-independent basis, Debye-Ang):
   XX=            -50.7564   YY=            -74.5845   ZZ=            -69.0995
   XY=              1.5361   XZ=              0.2815   YZ=             -0.1001

 Normal termination of Gaussian 16 at Mon Nov 13 16:23:16 2023.
