 Gaussian 16, Revision B.01,
 Gaussian 16:  ES64L-G16RevB.01 20-Dec-2017

 -------------------------
 #P B3LYP/6-311+g(d) force
 -------------------------

 ------------------------------
 Gaussian input prepared by ASE
 ------------------------------
 Symbolic Z-matrix:
 Charge =  0 Multiplicity = 2

                         Standard orientation:
 ---------------------------------------------------------------------
 Center     Atomic      Atomic             Coordinates (Angstroms)
 Number     Number       Type             X           Y           Z
 ---------------------------------------------------------------------
      1         11           0       -0.258927    0.012042   -1.773286
      2         11           0       -1.497842   -1.955111   -0.201562
      3         11           0       -2.877438    0.815400   -0.287300
      4         11           0       -0.056513    1.979224    0.218463
      5         11           0       -0.830801   -0.164928    1.849481
      6         11           0        1.395351   -0.816202    0.307661
      7         11           0        4.126172    0.129575   -0.113458
 ---------------------------------------------------------------------

 SCF Done:  E(UB3LYP) =  -1136.07581252     A.U. after   26 cycles

 The electronic state is 2-A.
 Alpha  occ. eigenvalues --  -38.46177 -38.44735 -38.44614 -38.44378 -38.43287
 Alpha  occ. eigenvalues --  -38.42812 -38.42554  -2.21956  -2.20924  -2.20628
 Alpha  occ. eigenvalues --   -2.20587  -2.19473  -2.18911  -2.18671  -1.15676
 Alpha  occ. eigenvalues --   -1.15601  -1.15580  -1.14724  -1.14587  -1.14562
 Alpha  occ. eigenvalues --   -1.14385  -1.14372  -1.14275  -1.14250  -1.14220
 Alpha  occ. eigenvalues --   -1.14143  -1.13207  -1.13145  -1.13003  -1.12642
 Alpha  occ. eigenvalues --   -1.12587  -1.12440  -1.12370  -1.12331  -1.12256
 Alpha  occ. eigenvalues --   -0.20965  -0.13979  -0.12009  -0.11532
 Alpha virt. eigenvalues --   -0.07573  -0.03703  -0.03542  -0.03459  -0.02785
 Alpha virt. eigenvalues --   -0.02437  -0.02349  -0.00730  -0.00437  -0.00020
 Alpha virt. eigenvalues --    0.00302   0.00383   0.00463   0.00849   0.01093

  Beta  occ. eigenvalues --  -38.46194 -38.44646 -38.44595 -38.44274 -38.43263
  Beta  occ. eigenvalues --  -38.42789 -38.42536  -2.21989  -2.20763  -2.20598
  Beta  occ. eigenvalues --   -2.20399  -2.19437  -2.18876  -2.18646  -1.15699
  Beta  occ. eigenvalues --   -1.15620  -1.15602  -1.14626  -1.14470  -1.14452
  Beta  occ. eigenvalues --   -1.14321  -1.14257  -1.14226  -1.14209  -1.14091
  Beta  occ. eigenvalues --   -1.14029  -1.13194  -1.13049  -1.12988  -1.12626
  Beta  occ. eigenvalues --   -1.12500  -1.12422  -1.12363  -1.12268  -1.12226
  Beta  occ. eigenvalues --   -0.20082  -0.13812  -0.11173
  Beta virt. eigenvalues --   -0.07723  -0.07442  -0.03581  -0.03256  -0.02931
  Beta virt. eigenvalues --   -0.02587  -0.01594  -0.01523  -0.00712  -0.00192
  Beta virt. eigenvalues --    0.00025   0.00312   0.00438   0.00603   0.00908

 Mulliken charges and spin densities:
               1          2
     1  Na  -0.325003   0.511932
     2  Na  -0.070051   0.067457
     3  Na   0.231402   0.027776
     4  Na  -0.008543  -0.031356
     5  Na  -0.559754   0.320809
     6  Na   0.311542   0.173826
     7  Na   0.420408  -0.070444
 Sum of Mulliken charges =  -0.00000   1.00000

 Dipole moment (field-independent basis, Debye):
    X=              0.9783    Y=              0.3722    Z=             -0.1518  Tot=              1.0576
 Quadrupole moment (field-independent basis, Debye-Ang):
   XX=            -42.7589   YY=            -78.3903   ZZ=            -69.1637
   XY=              1.6002   XZ=             -0.4379   YZ=              0.1086

 Normal termination of Gaussian 16 at Mon Nov 13 19:31:30 2023.
