 Gaussian 16, Revision B.01,
 Gaussian 16:  ES64L-G16RevB.01 20-Dec-2017

 -------------------------
 #P B3LYP/6-311+g(d) force
 -------------------------

 ------------------------------
 Gaussian input prepared by ASE
 ------------------------------
 Symbolic Z-matrix:
 Charge =  0 Multiplicity = 2

                         Standard orientation:
 ---------------------------------------------------------------------
 Center     Atomic      Atomic             Coordinates (Angstroms)
 Number     Number       Type             X           Y           Z
 ---------------------------------------------------------------------
      1         11           0        0.005914   -0.635298   -1.429398
      2         11           0        0.015797   -1.121861    1.533937
      3         11           0        2.531662   -1.461216   -0.057711
      4         11           0        2.063173    1.428823   -0.698552
      5         11           0       -0.026496    1.885380    1.414264
      6         11           0       -2.086373    1.396830   -0.719189
      7         11           0       -2.503677   -1.492658   -0.043351
 ---------------------------------------------------------------------

 SCF Done:  E(UB3LYP) =  -1136.10828675     A.U. after   19 cycles

 The electronic state is 2-A.
 Alpha  occ. eigenvalues --  -38.43838 -38.43819 -38.43816 -38.43793 -38.43595
 Alpha  occ. eigenvalues --  -38.43473 -38.43230  -2.19821  -2.19816  -2.19796
 Alpha  occ. eigenvalues --   -2.19787  -2.19705  -2.19676  -2.19240  -1.13720
 Alpha  occ. eigenvalues --   -1.13683  -1.13591  -1.13579  -1.13535  -1.13507
 Alpha  occ. eigenvalues --   -1.13488  -1.13476  -1.13460  -1.13452  -1.13412
 Alpha  occ. eigenvalues --   -1.13338  -1.13316  -1.13313  -1.13245  -1.13245
 Alpha  occ. eigenvalues --   -1.13221  -1.13214  -1.12889  -1.12855  -1.12843
 Alpha  occ. eigenvalues --   -0.20424  -0.13980  -0.12190  -0.11905
 Alpha virt. eigenvalues --   -0.05412  -0.04914  -0.03783  -0.03607  -0.03066
 Alpha virt. eigenvalues --   -0.02827  -0.01410  -0.00743  -0.00134   0.00348
 Alpha virt. eigenvalues --    0.00583   0.00590   0.00821   0.00909   0.01070

  Beta  occ. eigenvalues --  -38.43832 -38.43812 -38.43796 -38.43774 -38.43519
  Beta  occ. eigenvalues --  -38.43413 -38.43184  -2.19812  -2.19796  -2.19776
  Beta  occ. eigenvalues --   -2.19758  -2.19580  -2.19562  -2.19158  -1.13689
  Beta  occ. eigenvalues --   -1.13656  -1.13555  -1.13540  -1.13511  -1.13484
  Beta  occ. eigenvalues --   -1.13461  -1.13444  -1.13419  -1.13411  -1.13348
  Beta  occ. eigenvalues --   -1.13308  -1.13303  -1.13242  -1.13179  -1.13170
  Beta  occ. eigenvalues --   -1.13153  -1.13131  -1.12830  -1.12804  -1.12767
  Beta  occ. eigenvalues --   -0.19643  -0.13627  -0.12024
  Beta virt. eigenvalues --   -0.07715  -0.05349  -0.04871  -0.03522  -0.02951
  Beta virt. eigenvalues --   -0.02406  -0.01642  -0.01317  -0.00726   0.00085
  Beta virt. eigenvalues --    0.00386   0.00571   0.00605   0.00812   0.00964

 Mulliken charges and spin densities:
               1          2
     1  Na  -0.442028   0.247624
     2  Na   0.016470   0.381864
     3  Na   0.290036   0.089012
     4  Na  -0.096651   0.065768
     5  Na   0.047878   0.061443
     6  Na  -0.050371   0.070229
     7  Na   0.234665   0.084060
 Sum of Mulliken charges =  -0.00000   1.00000

 Dipole moment (field-independent basis, Debye):
    X=              0.0039    Y=              0.0179    Z=             -0.0054  Tot=              0.0191
 Quadrupole moment (field-independent basis, Debye-Ang):
   XX=            -56.5893   YY=            -70.0136   ZZ=            -69.1185
   XY=             -0.0129   XZ=              0.0003   YZ=             -1.1040

 Normal termination of Gaussian 16 at Mon Nov 13 16:55:52 2023.
