 Gaussian 16, Revision B.01,
 Gaussian 16:  ES64L-G16RevB.01 20-Dec-2017

 -------------------------
 #P B3LYP/6-311+g(d) force
 -------------------------

 ------------------------------
 Gaussian input prepared by ASE
 ------------------------------
 Symbolic Z-matrix:
 Charge =  0 Multiplicity = 2

                         Standard orientation:
 ---------------------------------------------------------------------
 Center     Atomic      Atomic             Coordinates (Angstroms)
 Number     Number       Type             X           Y           Z
 ---------------------------------------------------------------------
      1         11           0       -3.218572   -1.490764    1.561514
      2         11           0        2.858614   -1.649071   -0.960412
      3         11           0        4.391901   -0.125681    1.121421
      4         11           0        1.933078    1.072822   -0.107198
      5         11           0       -0.612964    2.644805   -0.335001
      6         11           0       -3.141119    1.058246   -0.018581
      7         11           0       -2.210937   -1.510357   -1.261743
 ---------------------------------------------------------------------

 SCF Done:  E(UB3LYP) =  -1136.09777260     A.U. after   22 cycles

 The electronic state is 2-A.
 Alpha  occ. eigenvalues --  -38.44875 -38.44601 -38.44538 -38.44463 -38.44249
 Alpha  occ. eigenvalues --  -38.44130 -38.42291  -2.20766  -2.20522  -2.20493
 Alpha  occ. eigenvalues --   -2.20361  -2.20170  -2.20101  -2.18182  -1.14506
 Alpha  occ. eigenvalues --   -1.14430  -1.14397  -1.14363  -1.14260  -1.14205
 Alpha  occ. eigenvalues --   -1.14167  -1.14100  -1.14076  -1.13986  -1.13970
 Alpha  occ. eigenvalues --   -1.13942  -1.13934  -1.13796  -1.13791  -1.13772
 Alpha  occ. eigenvalues --   -1.13747  -1.13678  -1.11896  -1.11831  -1.11796
 Alpha  occ. eigenvalues --   -0.17520  -0.15684  -0.11767  -0.09999
 Alpha virt. eigenvalues --   -0.06474  -0.06191  -0.04496  -0.03806  -0.02758
 Alpha virt. eigenvalues --   -0.02246  -0.01956  -0.01397  -0.00697  -0.00376
 Alpha virt. eigenvalues --   -0.00205   0.00193   0.00229   0.00350   0.00524

  Beta  occ. eigenvalues --  -38.44853 -38.44568 -38.44516 -38.44444 -38.44203
  Beta  occ. eigenvalues --  -38.44120 -38.42290  -2.20727  -2.20482  -2.20434
  Beta  occ. eigenvalues --   -2.20326  -2.20094  -2.20075  -2.18181  -1.14485
  Beta  occ. eigenvalues --   -1.14395  -1.14351  -1.14333  -1.14220  -1.14166
  Beta  occ. eigenvalues --   -1.14139  -1.14055  -1.14033  -1.13963  -1.13931
  Beta  occ. eigenvalues --   -1.13906  -1.13896  -1.13761  -1.13750  -1.13728
  Beta  occ. eigenvalues --   -1.13716  -1.13637  -1.11894  -1.11831  -1.11789
  Beta  occ. eigenvalues --   -0.17033  -0.15379  -0.11664
  Beta virt. eigenvalues --   -0.06531  -0.06373  -0.05347  -0.04233  -0.03655
  Beta virt. eigenvalues --   -0.02550  -0.01822  -0.01428  -0.01222  -0.00464
  Beta virt. eigenvalues --   -0.00080  -0.00041   0.00355   0.00367   0.00553

 Mulliken charges and spin densities:
               1          2
     1  Na   0.505919   0.099918
     2  Na   0.443899   0.147996
     3  Na   1.469378   0.223041
     4  Na  -1.710266   0.039882
     5  Na   0.305621   0.110105
     6  Na  -0.560774   0.094402
     7  Na  -0.453777   0.284656
 Sum of Mulliken charges =  -0.00000   1.00000

 Dipole moment (field-independent basis, Debye):
    X=              0.2976    Y=             -1.3291    Z=              0.6301  Tot=              1.5007
 Quadrupole moment (field-independent basis, Debye-Ang):
   XX=            -60.5478   YY=            -72.3933   ZZ=            -66.6635
   XY=             -2.4013   XZ=              0.8291   YZ=             -1.1644

 Normal termination of Gaussian 16 at Mon Nov 13 15:32:52 2023.
