 Gaussian 16, Revision B.01,
 Gaussian 16:  ES64L-G16RevB.01 20-Dec-2017

 -------------------------
 #P B3LYP/6-311+g(d) force
 -------------------------

 ------------------------------
 Gaussian input prepared by ASE
 ------------------------------
 Symbolic Z-matrix:
 Charge =  0 Multiplicity = 2

                         Standard orientation:
 ---------------------------------------------------------------------
 Center     Atomic      Atomic             Coordinates (Angstroms)
 Number     Number       Type             X           Y           Z
 ---------------------------------------------------------------------
      1         11           0        0.019763   -1.236116   -0.033844
      2         11           0        2.632344   -1.054963   -1.503979
      3         11           0        2.589369   -0.905302    1.485141
      4         11           0        2.751875    1.616561   -0.137649
      5         11           0       -0.247200    1.757326   -0.140818
      6         11           0       -2.533727    0.076984    0.815380
      7         11           0       -5.212425   -0.254490   -0.484231
 ---------------------------------------------------------------------

 SCF Done:  E(UB3LYP) =  -1136.08721620     A.U. after   33 cycles

 The electronic state is 2-A.
 Alpha  occ. eigenvalues --  -38.45894 -38.45392 -38.44702 -38.43699 -38.43605
 Alpha  occ. eigenvalues --  -38.43175 -38.42610  -2.21863  -2.21374  -2.20544
 Alpha  occ. eigenvalues --   -2.19798  -2.19585  -2.19196  -2.18610  -1.15591
 Alpha  occ. eigenvalues --   -1.15548  -1.15481  -1.15074  -1.15036  -1.14964
 Alpha  occ. eigenvalues --   -1.14225  -1.14156  -1.14154  -1.13538  -1.13465
 Alpha  occ. eigenvalues --   -1.13452  -1.13264  -1.13228  -1.13199  -1.12875
 Alpha  occ. eigenvalues --   -1.12868  -1.12830  -1.12295  -1.12248  -1.12224
 Alpha  occ. eigenvalues --   -0.19570  -0.15078  -0.11498  -0.11030
 Alpha virt. eigenvalues --   -0.07803  -0.04995  -0.04186  -0.03420  -0.03047
 Alpha virt. eigenvalues --   -0.01859  -0.01748  -0.01376  -0.01252  -0.00632
 Alpha virt. eigenvalues --   -0.00087   0.00215   0.00237   0.00570   0.00847

  Beta  occ. eigenvalues --  -38.45886 -38.45372 -38.44594 -38.43638 -38.43593
  Beta  occ. eigenvalues --  -38.43140 -38.42601  -2.21855  -2.21343  -2.20343
  Beta  occ. eigenvalues --   -2.19688  -2.19576  -2.19131  -2.18595  -1.15592
  Beta  occ. eigenvalues --   -1.15501  -1.15475  -1.15052  -1.14991  -1.14941
  Beta  occ. eigenvalues --   -1.14092  -1.14019  -1.14017  -1.13461  -1.13394
  Beta  occ. eigenvalues --   -1.13374  -1.13250  -1.13210  -1.13138  -1.12837
  Beta  occ. eigenvalues --   -1.12829  -1.12775  -1.12276  -1.12228  -1.12222
  Beta  occ. eigenvalues --   -0.19028  -0.14195  -0.10880
  Beta virt. eigenvalues --   -0.07753  -0.07621  -0.04420  -0.03905  -0.03158
  Beta virt. eigenvalues --   -0.02846  -0.01661  -0.01484  -0.00947  -0.00791
  Beta virt. eigenvalues --   -0.00261   0.00076   0.00307   0.00327   0.00635

 Mulliken charges and spin densities:
               1          2
     1  Na  -1.644171   0.148985
     2  Na   0.369665   0.053596
     3  Na   0.939811   0.076530
     4  Na  -0.348510   0.301425
     5  Na  -0.916303  -0.118368
     6  Na   2.033625   0.156171
     7  Na  -0.434117   0.381661
 Sum of Mulliken charges =  -0.00000   1.00000

 Dipole moment (field-independent basis, Debye):
    X=              0.8994    Y=             -0.3907    Z=             -0.1030  Tot=              0.9860
 Quadrupole moment (field-independent basis, Debye-Ang):
   XX=            -62.1916   YY=            -82.4061   ZZ=            -57.9055
   XY=             -1.0870   XZ=              3.3708   YZ=              1.4768

 Normal termination of Gaussian 16 at Mon Nov 13 15:40:55 2023.
