 Gaussian 16, Revision B.01,
 Gaussian 16:  ES64L-G16RevB.01 20-Dec-2017

 -------------------------
 #P B3LYP/6-311+g(d) force
 -------------------------

 ------------------------------
 Gaussian input prepared by ASE
 ------------------------------
 Symbolic Z-matrix:
 Charge =  0 Multiplicity = 2

                         Standard orientation:
 ---------------------------------------------------------------------
 Center     Atomic      Atomic             Coordinates (Angstroms)
 Number     Number       Type             X           Y           Z
 ---------------------------------------------------------------------
      1         11           0        0.795559    1.282403    0.222217
      2         11           0       -0.489060   -0.071788   -1.722953
      3         11           0        3.490656    0.265170   -0.092491
      4         11           0        1.232149   -1.537109    0.161355
      5         11           0       -2.159833   -1.573680   -0.220940
      6         11           0       -0.877711   -0.205874    1.722938
      7         11           0       -1.991760    1.840879   -0.070126
 ---------------------------------------------------------------------

 SCF Done:  E(UB3LYP) =  -1136.07009601     A.U. after   23 cycles

 The electronic state is 2-A.
 Alpha  occ. eigenvalues --  -38.45301 -38.44521 -38.44400 -38.43995 -38.43558
 Alpha  occ. eigenvalues --  -38.43160 -38.43107  -2.21208  -2.20778  -2.20660
 Alpha  occ. eigenvalues --   -2.20074  -2.19886  -2.19323  -2.19183  -1.14949
 Alpha  occ. eigenvalues --   -1.14884  -1.14816  -1.14669  -1.14591  -1.14525
 Alpha  occ. eigenvalues --   -1.14415  -1.14368  -1.14245  -1.13703  -1.13651
 Alpha  occ. eigenvalues --   -1.13599  -1.13570  -1.13520  -1.13469  -1.13040
 Alpha  occ. eigenvalues --   -1.12969  -1.12881  -1.12858  -1.12823  -1.12768
 Alpha  occ. eigenvalues --   -0.21342  -0.14531  -0.11975  -0.11926
 Alpha virt. eigenvalues --   -0.06554  -0.04190  -0.03816  -0.03397  -0.02539
 Alpha virt. eigenvalues --   -0.02427  -0.02017  -0.00681  -0.00172   0.00194
 Alpha virt. eigenvalues --    0.00532   0.00622   0.00828   0.00937   0.01027

  Beta  occ. eigenvalues --  -38.45309 -38.44427 -38.44306 -38.43977 -38.43528
  Beta  occ. eigenvalues --  -38.43142 -38.43096  -2.21225  -2.20609  -2.20491
  Beta  occ. eigenvalues --   -2.20047  -2.19842  -2.19298  -2.19168  -1.14960
  Beta  occ. eigenvalues --   -1.14899  -1.14816  -1.14576  -1.14476  -1.14404
  Beta  occ. eigenvalues --   -1.14315  -1.14245  -1.14120  -1.13635  -1.13612
  Beta  occ. eigenvalues --   -1.13583  -1.13543  -1.13498  -1.13351  -1.13029
  Beta  occ. eigenvalues --   -1.12890  -1.12875  -1.12852  -1.12769  -1.12754
  Beta  occ. eigenvalues --   -0.20520  -0.14291  -0.11587
  Beta virt. eigenvalues --   -0.07703  -0.06410  -0.04218  -0.03237  -0.02960
  Beta virt. eigenvalues --   -0.01998  -0.01669  -0.01453  -0.00659   0.00041
  Beta virt. eigenvalues --    0.00228   0.00550   0.00594   0.00952   0.01017

 Mulliken charges and spin densities:
               1          2
     1  Na   0.169956   0.293303
     2  Na  -0.430582   0.506864
     3  Na   0.158527  -0.150141
     4  Na   0.097942   0.101935
     5  Na   0.376814   0.012419
     6  Na  -0.302489   0.316440
     7  Na  -0.070168  -0.080819
 Sum of Mulliken charges =  -0.00000   1.00000

 Dipole moment (field-independent basis, Debye):
    X=              0.6938    Y=             -0.1718    Z=             -0.1147  Tot=              0.7239
 Quadrupole moment (field-independent basis, Debye-Ang):
   XX=            -48.7057   YY=            -74.9363   ZZ=            -69.8462
   XY=              0.1549   XZ=             -0.3355   YZ=             -0.0378

 Normal termination of Gaussian 16 at Mon Nov 13 19:22:31 2023.
