 Gaussian 16, Revision B.01,
 Gaussian 16:  ES64L-G16RevB.01 20-Dec-2017

 -------------------------
 #P B3LYP/6-311+g(d) force
 -------------------------

 ------------------------------
 Gaussian input prepared by ASE
 ------------------------------
 Symbolic Z-matrix:
 Charge =  0 Multiplicity = 2

                         Standard orientation:
 ---------------------------------------------------------------------
 Center     Atomic      Atomic             Coordinates (Angstroms)
 Number     Number       Type             X           Y           Z
 ---------------------------------------------------------------------
      1         11           0        0.747306    3.322084    0.082846
      2         11           0        0.346845    0.348322   -0.148766
      3         11           0        3.328837   -0.025948   -0.112169
      4         11           0        1.524661   -2.402364    0.124455
      5         11           0       -1.444232   -2.056013    0.042921
      6         11           0       -2.164928    0.459327    1.500145
      7         11           0       -2.338490    0.354592   -1.489432
 ---------------------------------------------------------------------

 SCF Done:  E(UB3LYP) =  -1136.10207337     A.U. after   26 cycles

 The electronic state is 2-A.
 Alpha  occ. eigenvalues --  -38.44891 -38.44302 -38.43875 -38.43767 -38.43733
 Alpha  occ. eigenvalues --  -38.43687 -38.42626  -2.20765  -2.20098  -2.19879
 Alpha  occ. eigenvalues --   -2.19777  -2.19752  -2.19693  -2.18921  -1.14500
 Alpha  occ. eigenvalues --   -1.14406  -1.14391  -1.13815  -1.13750  -1.13743
 Alpha  occ. eigenvalues --   -1.13718  -1.13582  -1.13561  -1.13530  -1.13510
 Alpha  occ. eigenvalues --   -1.13424  -1.13383  -1.13350  -1.13335  -1.13311
 Alpha  occ. eigenvalues --   -1.13288  -1.13243  -1.12600  -1.12572  -1.12560
 Alpha  occ. eigenvalues --   -0.19463  -0.14041  -0.12627  -0.10147
 Alpha virt. eigenvalues --   -0.06361  -0.05211  -0.04833  -0.03062  -0.02227
 Alpha virt. eigenvalues --   -0.01942  -0.01437  -0.01332  -0.00421  -0.00203
 Alpha virt. eigenvalues --   -0.00112   0.00363   0.00736   0.00757   0.00850

  Beta  occ. eigenvalues --  -38.44891 -38.44304 -38.43814 -38.43731 -38.43697
  Beta  occ. eigenvalues --  -38.43663 -38.42599  -2.20766  -2.20104  -2.19768
  Beta  occ. eigenvalues --   -2.19723  -2.19689  -2.19645  -2.18882  -1.14501
  Beta  occ. eigenvalues --   -1.14404  -1.14392  -1.13819  -1.13745  -1.13723
  Beta  occ. eigenvalues --   -1.13689  -1.13565  -1.13471  -1.13465  -1.13425
  Beta  occ. eigenvalues --   -1.13384  -1.13332  -1.13309  -1.13277  -1.13242
  Beta  occ. eigenvalues --   -1.13236  -1.13191  -1.12586  -1.12544  -1.12461
  Beta  occ. eigenvalues --   -0.18745  -0.13851  -0.12449
  Beta virt. eigenvalues --   -0.06323  -0.06011  -0.05044  -0.04731  -0.02521
  Beta virt. eigenvalues --   -0.01698  -0.01659  -0.01346  -0.00733  -0.00296
  Beta virt. eigenvalues --   -0.00188   0.00227   0.00472   0.00747   0.00865

 Mulliken charges and spin densities:
               1          2
     1  Na   0.441788   0.074911
     2  Na  -4.122504   0.575847
     3  Na   0.060417  -0.315920
     4  Na   0.968178  -0.222522
     5  Na   1.933285   0.704542
     6  Na   0.039951   0.076308
     7  Na   0.678885   0.106835
 Sum of Mulliken charges =  -0.00000   1.00000

 Dipole moment (field-independent basis, Debye):
    X=              0.7535    Y=              0.4716    Z=              0.1246  Tot=              0.8977
 Quadrupole moment (field-independent basis, Debye-Ang):
   XX=            -54.7115   YY=            -59.7662   ZZ=            -76.4496
   XY=             -0.1987   XZ=             -0.3067   YZ=              0.0106

 Normal termination of Gaussian 16 at Mon Nov 13 18:24:50 2023.
