 Gaussian 16, Revision B.01,
 Gaussian 16:  ES64L-G16RevB.01 20-Dec-2017

 -------------------------
 #P B3LYP/6-311+g(d) force
 -------------------------

 ------------------------------
 Gaussian input prepared by ASE
 ------------------------------
 Symbolic Z-matrix:
 Charge =  0 Multiplicity = 2

                         Standard orientation:
 ---------------------------------------------------------------------
 Center     Atomic      Atomic             Coordinates (Angstroms)
 Number     Number       Type             X           Y           Z
 ---------------------------------------------------------------------
      1         11           0        0.923442   -1.112507   -0.674711
      2         11           0       -0.984537    1.194559   -0.506679
      3         11           0       -3.888423    0.455726   -0.685383
      4         11           0       -1.882218   -1.553042    0.290894
      5         11           0        0.078028   -0.057338    2.003645
      6         11           0        1.892931    1.567343    0.253145
      7         11           0        3.860778   -0.494741   -0.680912
 ---------------------------------------------------------------------

 SCF Done:  E(UB3LYP) =  -1136.08213258     A.U. after   52 cycles

 The electronic state is 2-A.
 Alpha  occ. eigenvalues --  -38.45176 -38.45140 -38.45090 -38.43645 -38.43377
 Alpha  occ. eigenvalues --  -38.43006 -38.43002  -2.21193  -2.21083  -2.21046
 Alpha  occ. eigenvalues --   -2.19786  -2.19520  -2.19091  -2.19084  -1.14935
 Alpha  occ. eigenvalues --   -1.14861  -1.14776  -1.14746  -1.14737  -1.14728
 Alpha  occ. eigenvalues --   -1.14690  -1.14689  -1.14654  -1.13597  -1.13461
 Alpha  occ. eigenvalues --   -1.13423  -1.13225  -1.13201  -1.13150  -1.12793
 Alpha  occ. eigenvalues --   -1.12769  -1.12740  -1.12725  -1.12697  -1.12675
 Alpha  occ. eigenvalues --   -0.20397  -0.15380  -0.11987  -0.10855
 Alpha virt. eigenvalues --   -0.07427  -0.04639  -0.04571  -0.03241  -0.02837
 Alpha virt. eigenvalues --   -0.02192  -0.01784  -0.01109  -0.00771  -0.00215
 Alpha virt. eigenvalues --    0.00165   0.00409   0.00602   0.00866   0.00905

  Beta  occ. eigenvalues --  -38.45110 -38.45076 -38.44989 -38.43640 -38.43369
  Beta  occ. eigenvalues --  -38.42991 -38.42987  -2.21013  -2.20961  -2.20927
  Beta  occ. eigenvalues --   -2.19784  -2.19513  -2.19072  -2.19064  -1.14807
  Beta  occ. eigenvalues --   -1.14743  -1.14697  -1.14660  -1.14643  -1.14610
  Beta  occ. eigenvalues --   -1.14605  -1.14604  -1.14571  -1.13581  -1.13473
  Beta  occ. eigenvalues --   -1.13384  -1.13207  -1.13194  -1.13119  -1.12772
  Beta  occ. eigenvalues --   -1.12743  -1.12715  -1.12711  -1.12652  -1.12640
  Beta  occ. eigenvalues --   -0.19714  -0.14595  -0.10548
  Beta virt. eigenvalues --   -0.08391  -0.07067  -0.04317  -0.04001  -0.02870
  Beta virt. eigenvalues --   -0.02635  -0.01532  -0.01375  -0.00731  -0.00683
  Beta virt. eigenvalues --   -0.00119   0.00282   0.00463   0.00700   0.00926

 Mulliken charges and spin densities:
               1          2
     1  Na  -0.614924   0.235171
     2  Na  -0.564835   0.168837
     3  Na   0.305764   0.220901
     4  Na   0.541595   0.054928
     5  Na  -0.218537   0.124669
     6  Na   0.308888   0.023805
     7  Na   0.242049   0.171688
 Sum of Mulliken charges =  -0.00000   1.00000

 Dipole moment (field-independent basis, Debye):
    X=              0.0737    Y=             -0.0768    Z=              0.8016  Tot=              0.8086
 Quadrupole moment (field-independent basis, Debye-Ang):
   XX=            -47.7595   YY=            -82.7568   ZZ=            -64.5996
   XY=              1.3914   XZ=              0.3976   YZ=              0.0095

 Normal termination of Gaussian 16 at Mon Nov 13 17:04:28 2023.
