 Gaussian 16, Revision B.01,
 Gaussian 16:  ES64L-G16RevB.01 20-Dec-2017

 -------------------------
 #P B3LYP/6-311+g(d) force
 -------------------------

 ------------------------------
 Gaussian input prepared by ASE
 ------------------------------
 Symbolic Z-matrix:
 Charge =  0 Multiplicity = 2

                         Standard orientation:
 ---------------------------------------------------------------------
 Center     Atomic      Atomic             Coordinates (Angstroms)
 Number     Number       Type             X           Y           Z
 ---------------------------------------------------------------------
      1         11           0        0.703682    0.817814   -0.960487
      2         11           0       -1.563754    2.568756   -0.065202
      3         11           0       -4.386885   -1.203372   -0.257059
      4         11           0       -1.613418   -0.373554    0.528342
      5         11           0        1.038016   -1.782505    0.484106
      6         11           0        2.526139    0.650074    1.421687
      7         11           0        3.296220   -0.677212   -1.151387
 ---------------------------------------------------------------------

 SCF Done:  E(UB3LYP) =  -1136.08654534     A.U. after   32 cycles

 The electronic state is 2-A.
 Alpha  occ. eigenvalues --  -38.46002 -38.44558 -38.44277 -38.44001 -38.43632
 Alpha  occ. eigenvalues --  -38.43617 -38.42979  -2.21966  -2.20382  -2.20296
 Alpha  occ. eigenvalues --   -2.20066  -2.19810  -2.19507  -2.19050  -1.15707
 Alpha  occ. eigenvalues --   -1.15622  -1.15593  -1.14065  -1.14057  -1.14005
 Alpha  occ. eigenvalues --   -1.13996  -1.13936  -1.13925  -1.13847  -1.13686
 Alpha  occ. eigenvalues --   -1.13665  -1.13526  -1.13462  -1.13431  -1.13215
 Alpha  occ. eigenvalues --   -1.13147  -1.13102  -1.12787  -1.12678  -1.12642
 Alpha  occ. eigenvalues --   -0.19775  -0.14820  -0.11458  -0.10876
 Alpha virt. eigenvalues --   -0.07567  -0.05447  -0.03898  -0.03161  -0.02999
 Alpha virt. eigenvalues --   -0.01854  -0.01682  -0.01381  -0.00850  -0.00260
 Alpha virt. eigenvalues --   -0.00081   0.00147   0.00361   0.00554   0.00746

  Beta  occ. eigenvalues --  -38.45994 -38.44479 -38.44214 -38.43979 -38.43616
  Beta  occ. eigenvalues --  -38.43598 -38.42964  -2.21958  -2.20235  -2.20178
  Beta  occ. eigenvalues --   -2.20033  -2.19752  -2.19507  -2.19033  -1.15709
  Beta  occ. eigenvalues --   -1.15593  -1.15562  -1.13996  -1.13969  -1.13906
  Beta  occ. eigenvalues --   -1.13896  -1.13859  -1.13839  -1.13814  -1.13658
  Beta  occ. eigenvalues --   -1.13605  -1.13464  -1.13433  -1.13396  -1.13212
  Beta  occ. eigenvalues --   -1.13136  -1.13096  -1.12753  -1.12651  -1.12613
  Beta  occ. eigenvalues --   -0.19198  -0.14244  -0.11218
  Beta virt. eigenvalues --   -0.07491  -0.06857  -0.05346  -0.03260  -0.02973
  Beta virt. eigenvalues --   -0.02946  -0.01521  -0.01242  -0.00986  -0.00347
  Beta virt. eigenvalues --   -0.00095   0.00019   0.00232   0.00531   0.00617

 Mulliken charges and spin densities:
               1          2
     1  Na  -1.369220  -0.023376
     2  Na   0.637202  -0.040137
     3  Na   0.307819   0.312323
     4  Na  -0.840887   0.189444
     5  Na  -0.166289   0.093573
     6  Na   0.481992   0.204526
     7  Na   0.949384   0.263646
 Sum of Mulliken charges =  -0.00000   1.00000

 Dipole moment (field-independent basis, Debye):
    X=              1.0104    Y=              0.5262    Z=              0.8204  Tot=              1.4038
 Quadrupole moment (field-independent basis, Debye-Ang):
   XX=            -54.8099   YY=            -71.3383   ZZ=            -69.8129
   XY=             -3.1106   XZ=              5.1060   YZ=              4.9654

 Normal termination of Gaussian 16 at Mon Nov 13 17:24:14 2023.
