 Gaussian 16, Revision B.01,
 Gaussian 16:  ES64L-G16RevB.01 20-Dec-2017

 -------------------------
 #P B3LYP/6-311+g(d) force
 -------------------------

 ------------------------------
 Gaussian input prepared by ASE
 ------------------------------
 Symbolic Z-matrix:
 Charge =  0 Multiplicity = 2

                         Standard orientation:
 ---------------------------------------------------------------------
 Center     Atomic      Atomic             Coordinates (Angstroms)
 Number     Number       Type             X           Y           Z
 ---------------------------------------------------------------------
      1         11           0        0.523726   -1.381210   -0.072355
      2         11           0       -0.511401    0.042206    2.076902
      3         11           0        3.294386   -0.514482   -0.021911
      4         11           0        1.276621    1.566569    0.049748
      5         11           0       -2.245712   -1.454932   -0.047846
      6         11           0       -0.554378    0.226817   -2.065046
      7         11           0       -1.783242    1.515032    0.080508
 ---------------------------------------------------------------------

 SCF Done:  E(UB3LYP) =  -1136.08140070     A.U. after   46 cycles

 The electronic state is 2-A.
 Alpha  occ. eigenvalues --  -38.45089 -38.44991 -38.44722 -38.43337 -38.43249
 Alpha  occ. eigenvalues --  -38.43099 -38.42637  -2.21225  -2.21128  -2.20634
 Alpha  occ. eigenvalues --   -2.19440  -2.19409  -2.19377  -2.18777  -1.15001
 Alpha  occ. eigenvalues --   -1.14909  -1.14895  -1.14802  -1.14781  -1.14685
 Alpha  occ. eigenvalues --   -1.14375  -1.14312  -1.14243  -1.13358  -1.13175
 Alpha  occ. eigenvalues --   -1.13115  -1.13090  -1.13069  -1.13048  -1.13024
 Alpha  occ. eigenvalues --   -1.12903  -1.12825  -1.12484  -1.12431  -1.12369
 Alpha  occ. eigenvalues --   -0.21348  -0.14177  -0.12803  -0.11683
 Alpha virt. eigenvalues --   -0.06053  -0.04032  -0.03915  -0.03864  -0.02894
 Alpha virt. eigenvalues --   -0.02607  -0.01647  -0.00421  -0.00334   0.00265
 Alpha virt. eigenvalues --    0.00616   0.00761   0.00800   0.00944   0.01102

  Beta  occ. eigenvalues --  -38.44981 -38.44887 -38.44730 -38.43325 -38.43230
  Beta  occ. eigenvalues --  -38.43071 -38.42624  -2.21030  -2.20940  -2.20652
  Beta  occ. eigenvalues --   -2.19419  -2.19382  -2.19345  -2.18760  -1.14880
  Beta  occ. eigenvalues --   -1.14786  -1.14755  -1.14665  -1.14638  -1.14546
  Beta  occ. eigenvalues --   -1.14385  -1.14327  -1.14244  -1.13351  -1.13170
  Beta  occ. eigenvalues --   -1.13064  -1.13036  -1.13021  -1.12991  -1.12943
  Beta  occ. eigenvalues --   -1.12897  -1.12814  -1.12478  -1.12370  -1.12363
  Beta  occ. eigenvalues --   -0.20424  -0.13911  -0.11334
  Beta virt. eigenvalues --   -0.08541  -0.05933  -0.03929  -0.03227  -0.03113
  Beta virt. eigenvalues --   -0.02207  -0.01978  -0.01603  -0.00383  -0.00115
  Beta virt. eigenvalues --    0.00307   0.00634   0.00762   0.00991   0.01053

 Mulliken charges and spin densities:
               1          2
     1  Na  -0.456118   0.106297
     2  Na   0.136912   0.474471
     3  Na   0.196624  -0.053165
     4  Na  -0.420027  -0.030045
     5  Na  -0.004382  -0.012405
     6  Na   0.140223   0.469815
     7  Na   0.406770   0.045032
 Sum of Mulliken charges =  -0.00000   1.00000

 Dipole moment (field-independent basis, Debye):
    X=              0.4510    Y=              0.1429    Z=              0.0245  Tot=              0.4738
 Quadrupole moment (field-independent basis, Debye-Ang):
   XX=            -54.0609   YY=            -77.6058   ZZ=            -63.9512
   XY=             -0.0300   XZ=             -0.0034   YZ=             -2.2176

 Normal termination of Gaussian 16 at Mon Nov 13 19:14:03 2023.
