 Gaussian 16, Revision B.01,
 Gaussian 16:  ES64L-G16RevB.01 20-Dec-2017

 -------------------------
 #P B3LYP/6-311+g(d) force
 -------------------------

 ------------------------------
 Gaussian input prepared by ASE
 ------------------------------
 Symbolic Z-matrix:
 Charge =  0 Multiplicity = 2

                         Standard orientation:
 ---------------------------------------------------------------------
 Center     Atomic      Atomic             Coordinates (Angstroms)
 Number     Number       Type             X           Y           Z
 ---------------------------------------------------------------------
      1         11           0        0.517322   -0.039687   -1.410129
      2         11           0        0.331721    2.504420    0.175513
      3         11           0        3.445032   -0.259530   -0.773451
      4         11           0        1.423591    0.006916    1.435360
      5         11           0       -0.069146   -2.374505    0.385883
      6         11           0       -1.503153    0.220637    0.792367
      7         11           0       -4.145367   -0.058251   -0.605543
 ---------------------------------------------------------------------

 SCF Done:  E(UB3LYP) =  -1136.09285384     A.U. after   25 cycles

 The electronic state is 2-A.
 Alpha  occ. eigenvalues --  -38.45278 -38.44807 -38.44562 -38.43732 -38.42925
 Alpha  occ. eigenvalues --  -38.42717 -38.42461  -2.21086  -2.20725  -2.20704
 Alpha  occ. eigenvalues --   -2.19938  -2.18920  -2.18897  -2.18456  -1.14774
 Alpha  occ. eigenvalues --   -1.14707  -1.14697  -1.14521  -1.14508  -1.14401
 Alpha  occ. eigenvalues --   -1.14355  -1.14274  -1.14246  -1.13694  -1.13574
 Alpha  occ. eigenvalues --   -1.13540  -1.12749  -1.12632  -1.12577  -1.12542
 Alpha  occ. eigenvalues --   -1.12529  -1.12421  -1.12157  -1.12103  -1.12038
 Alpha  occ. eigenvalues --   -0.20046  -0.13883  -0.11736  -0.11322
 Alpha virt. eigenvalues --   -0.07317  -0.04064  -0.03600  -0.03365  -0.02761
 Alpha virt. eigenvalues --   -0.02111  -0.02078  -0.01016  -0.00517  -0.00040
 Alpha virt. eigenvalues --    0.00082   0.00236   0.00417   0.00865   0.01010

  Beta  occ. eigenvalues --  -38.45219 -38.44765 -38.44535 -38.43678 -38.42906
  Beta  occ. eigenvalues --  -38.42684 -38.42453  -2.20975  -2.20677  -2.20628
  Beta  occ. eigenvalues --   -2.19849  -2.18886  -2.18853  -2.18445  -1.14703
  Beta  occ. eigenvalues --   -1.14630  -1.14622  -1.14481  -1.14443  -1.14348
  Beta  occ. eigenvalues --   -1.14329  -1.14222  -1.14203  -1.13618  -1.13488
  Beta  occ. eigenvalues --   -1.13473  -1.12714  -1.12600  -1.12538  -1.12503
  Beta  occ. eigenvalues --   -1.12454  -1.12397  -1.12151  -1.12073  -1.12032
  Beta  occ. eigenvalues --   -0.19380  -0.13279  -0.11530
  Beta virt. eigenvalues --   -0.07567  -0.06930  -0.03614  -0.03521  -0.03235
  Beta virt. eigenvalues --   -0.02402  -0.01613  -0.01313  -0.00646  -0.00447
  Beta virt. eigenvalues --    0.00040   0.00208   0.00306   0.00553   0.00887

 Mulliken charges and spin densities:
               1          2
     1  Na  -0.768129   0.527507
     2  Na  -0.055365   0.026972
     3  Na   0.411596   0.019709
     4  Na   0.231109  -0.045723
     5  Na   0.000454   0.012933
     6  Na   0.018097   0.340602
     7  Na   0.162239   0.118001
 Sum of Mulliken charges =  -0.00000   1.00000

 Dipole moment (field-independent basis, Debye):
    X=              0.1939    Y=             -0.1202    Z=             -0.1645  Tot=              0.2813
 Quadrupole moment (field-independent basis, Debye-Ang):
   XX=            -51.1989   YY=            -73.0191   ZZ=            -68.0034
   XY=              0.4337   XZ=              2.8097   YZ=             -0.0904

 Normal termination of Gaussian 16 at Mon Nov 13 19:28:49 2023.
