 Gaussian 16, Revision B.01,
 Gaussian 16:  ES64L-G16RevB.01 20-Dec-2017

 -------------------------
 #P B3LYP/6-311+g(d) force
 -------------------------

 ------------------------------
 Gaussian input prepared by ASE
 ------------------------------
 Symbolic Z-matrix:
 Charge =  0 Multiplicity = 2

                         Standard orientation:
 ---------------------------------------------------------------------
 Center     Atomic      Atomic             Coordinates (Angstroms)
 Number     Number       Type             X           Y           Z
 ---------------------------------------------------------------------
      1         11           0       -0.946366    1.018421    1.715804
      2         11           0       -0.661014   -1.912527    1.160760
      3         11           0       -4.503422    0.247471   -0.887376
      4         11           0       -1.522561   -0.051189   -1.024671
      5         11           0        2.852620    2.589619   -0.264194
      6         11           0        1.300843    0.031127   -0.011659
      7         11           0        3.479899   -1.922921   -0.688664
 ---------------------------------------------------------------------

 SCF Done:  E(UB3LYP) =  -1136.09006724     A.U. after   29 cycles

 The electronic state is 2-A.
 Alpha  occ. eigenvalues --  -38.45477 -38.45352 -38.44545 -38.44223 -38.43407
 Alpha  occ. eigenvalues --  -38.43275 -38.42694  -2.21469  -2.21165  -2.20600
 Alpha  occ. eigenvalues --   -2.20053  -2.19271  -2.19212  -2.18893  -1.15218
 Alpha  occ. eigenvalues --   -1.15090  -1.15068  -1.14849  -1.14801  -1.14752
 Alpha  occ. eigenvalues --   -1.14352  -1.14253  -1.14225  -1.13709  -1.13681
 Alpha  occ. eigenvalues --   -1.13669  -1.13021  -1.12939  -1.12934  -1.12873
 Alpha  occ. eigenvalues --   -1.12865  -1.12838  -1.12635  -1.12577  -1.12426
 Alpha  occ. eigenvalues --   -0.19080  -0.14001  -0.11667  -0.11147
 Alpha virt. eigenvalues --   -0.06745  -0.05554  -0.04236  -0.03090  -0.02615
 Alpha virt. eigenvalues --   -0.02160  -0.01931  -0.01383  -0.01134  -0.00239
 Alpha virt. eigenvalues --    0.00025   0.00153   0.00417   0.00586   0.00668

  Beta  occ. eigenvalues --  -38.45408 -38.45270 -38.44535 -38.44170 -38.43405
  Beta  occ. eigenvalues --  -38.43274 -38.42674  -2.21344  -2.21011  -2.20584
  Beta  occ. eigenvalues --   -2.19956  -2.19273  -2.19209  -2.18868  -1.15131
  Beta  occ. eigenvalues --   -1.15007  -1.14970  -1.14746  -1.14695  -1.14647
  Beta  occ. eigenvalues --   -1.14312  -1.14239  -1.14219  -1.13639  -1.13616
  Beta  occ. eigenvalues --   -1.13609  -1.13023  -1.12939  -1.12917  -1.12873
  Beta  occ. eigenvalues --   -1.12864  -1.12828  -1.12603  -1.12505  -1.12419
  Beta  occ. eigenvalues --   -0.18506  -0.13280  -0.10838
  Beta virt. eigenvalues --   -0.08188  -0.06334  -0.05266  -0.03857  -0.02757
  Beta virt. eigenvalues --   -0.02284  -0.01685  -0.01607  -0.01034  -0.00960
  Beta virt. eigenvalues --   -0.00130   0.00131   0.00302   0.00512   0.00670

 Mulliken charges and spin densities:
               1          2
     1  Na   0.769301  -0.053051
     2  Na   0.563801  -0.142095
     3  Na   0.103551  -0.047202
     4  Na   0.492603   0.037177
     5  Na   0.821346  -0.037647
     6  Na  -3.520599   1.062931
     7  Na   0.769997   0.179886
 Sum of Mulliken charges =  -0.00000   1.00000

 Dipole moment (field-independent basis, Debye):
    X=             -0.2488    Y=             -0.7546    Z=              1.1358  Tot=              1.3861
 Quadrupole moment (field-independent basis, Debye-Ang):
   XX=            -57.8491   YY=            -69.3038   ZZ=            -68.0142
   XY=             -2.2788   XZ=             -5.2835   YZ=              3.9518

 Normal termination of Gaussian 16 at Mon Nov 13 18:50:13 2023.
