 Gaussian 16, Revision B.01,
 Gaussian 16:  ES64L-G16RevB.01 20-Dec-2017

 -------------------------
 #P B3LYP/6-311+g(d) force
 -------------------------

 ------------------------------
 Gaussian input prepared by ASE
 ------------------------------
 Symbolic Z-matrix:
 Charge =  0 Multiplicity = 2

                         Standard orientation:
 ---------------------------------------------------------------------
 Center     Atomic      Atomic             Coordinates (Angstroms)
 Number     Number       Type             X           Y           Z
 ---------------------------------------------------------------------
      1         11           0       -1.454024    0.854086   -1.369665
      2         11           0       -1.403416    1.322728    1.597600
      3         11           0       -2.621611   -1.833808   -0.722529
      4         11           0       -0.510744   -1.538239    1.391110
      5         11           0        0.713603    2.513977   -0.154329
      6         11           0        1.224089   -0.372957   -0.772425
      7         11           0        4.052104   -0.945787    0.030238
 ---------------------------------------------------------------------

 SCF Done:  E(UB3LYP) =  -1136.10574073     A.U. after   23 cycles

 The electronic state is 2-A.
 Alpha  occ. eigenvalues --  -38.44452 -38.44046 -38.44039 -38.43976 -38.43711
 Alpha  occ. eigenvalues --  -38.43494 -38.43178  -2.20243  -2.20072  -2.20038
 Alpha  occ. eigenvalues --   -2.19892  -2.19831  -2.19485  -2.19255  -1.13949
 Alpha  occ. eigenvalues --   -1.13889  -1.13883  -1.13874  -1.13800  -1.13754
 Alpha  occ. eigenvalues --   -1.13733  -1.13709  -1.13665  -1.13587  -1.13578
 Alpha  occ. eigenvalues --   -1.13504  -1.13468  -1.13431  -1.13384  -1.13208
 Alpha  occ. eigenvalues --   -1.13120  -1.13074  -1.12923  -1.12891  -1.12840
 Alpha  occ. eigenvalues --   -0.19886  -0.13255  -0.12342  -0.11745
 Alpha virt. eigenvalues --   -0.06443  -0.04827  -0.03500  -0.03404  -0.02921
 Alpha virt. eigenvalues --   -0.02840  -0.01837  -0.01029  -0.00406   0.00128
 Alpha virt. eigenvalues --    0.00183   0.00440   0.00637   0.00820   0.00874

  Beta  occ. eigenvalues --  -38.44461 -38.43987 -38.43978 -38.43956 -38.43648
  Beta  occ. eigenvalues --  -38.43486 -38.43155  -2.20260  -2.19955  -2.19941
  Beta  occ. eigenvalues --   -2.19857  -2.19720  -2.19473  -2.19217  -1.13959
  Beta  occ. eigenvalues --   -1.13900  -1.13893  -1.13797  -1.13707  -1.13700
  Beta  occ. eigenvalues --   -1.13666  -1.13631  -1.13607  -1.13505  -1.13501
  Beta  occ. eigenvalues --   -1.13473  -1.13426  -1.13340  -1.13325  -1.13191
  Beta  occ. eigenvalues --   -1.13087  -1.13058  -1.12895  -1.12837  -1.12817
  Beta  occ. eigenvalues --   -0.19077  -0.13040  -0.12247
  Beta virt. eigenvalues --   -0.07445  -0.06229  -0.04803  -0.03336  -0.02716
  Beta virt. eigenvalues --   -0.02454  -0.02044  -0.01416  -0.00947  -0.00116
  Beta virt. eigenvalues --    0.00137   0.00228   0.00513   0.00768   0.00826

 Mulliken charges and spin densities:
               1          2
     1  Na   1.733975   0.077403
     2  Na  -0.250744   0.246242
     3  Na   0.029041  -0.091258
     4  Na  -0.312445   0.244032
     5  Na  -0.189519   0.127488
     6  Na  -0.876199   0.457164
     7  Na  -0.134107  -0.061070
 Sum of Mulliken charges =  -0.00000   1.00000

 Dipole moment (field-independent basis, Debye):
    X=             -0.0291    Y=              0.1142    Z=              0.4299  Tot=              0.4457
 Quadrupole moment (field-independent basis, Debye-Ang):
   XX=            -55.4447   YY=            -67.6263   ZZ=            -70.2160
   XY=              1.9743   XZ=              2.1376   YZ=              0.2800

 Normal termination of Gaussian 16 at Mon Nov 13 18:44:54 2023.
