 Gaussian 16, Revision B.01,
 Gaussian 16:  ES64L-G16RevB.01 20-Dec-2017

 -------------------------
 #P B3LYP/6-311+g(d) force
 -------------------------

 ------------------------------
 Gaussian input prepared by ASE
 ------------------------------
 Symbolic Z-matrix:
 Charge =  0 Multiplicity = 2

                         Standard orientation:
 ---------------------------------------------------------------------
 Center     Atomic      Atomic             Coordinates (Angstroms)
 Number     Number       Type             X           Y           Z
 ---------------------------------------------------------------------
      1         11           0       -1.833619    1.408944    0.388849
      2         11           0        0.737722   -1.370520   -0.300438
      3         11           0        3.387293   -0.228646   -0.066107
      4         11           0        1.051457    1.456914    0.191589
      5         11           0       -0.461662   -0.345716    1.877528
      6         11           0       -0.724923    0.483225   -1.876392
      7         11           0       -2.156268   -1.404201   -0.215028
 ---------------------------------------------------------------------

 SCF Done:  E(UB3LYP) =  -1136.05988518     A.U. after   26 cycles

 The electronic state is 2-A.
 Alpha  occ. eigenvalues --  -38.45202 -38.44904 -38.44576 -38.43973 -38.43643
 Alpha  occ. eigenvalues --  -38.43432 -38.43052  -2.21154  -2.21114  -2.20798
 Alpha  occ. eigenvalues --   -2.20212  -2.19798  -2.19730  -2.19302  -1.15025
 Alpha  occ. eigenvalues --   -1.14909  -1.14857  -1.14792  -1.14739  -1.14715
 Alpha  occ. eigenvalues --   -1.14673  -1.14521  -1.14413  -1.13865  -1.13841
 Alpha  occ. eigenvalues --   -1.13757  -1.13582  -1.13462  -1.13415  -1.13382
 Alpha  occ. eigenvalues --   -1.13357  -1.13219  -1.12999  -1.12930  -1.12848
 Alpha  occ. eigenvalues --   -0.21813  -0.14466  -0.12851  -0.11667
 Alpha virt. eigenvalues --   -0.06441  -0.04106  -0.03744  -0.03701  -0.02685
 Alpha virt. eigenvalues --   -0.02515  -0.01856  -0.00445  -0.00203   0.00229
 Alpha virt. eigenvalues --    0.00569   0.00745   0.00851   0.00962   0.01091

  Beta  occ. eigenvalues --  -38.45209 -38.44808 -38.44490 -38.43942 -38.43622
  Beta  occ. eigenvalues --  -38.43401 -38.43028  -2.21128  -2.20982  -2.20644
  Beta  occ. eigenvalues --   -2.20164  -2.19765  -2.19684  -2.19266  -1.14927
  Beta  occ. eigenvalues --   -1.14866  -1.14803  -1.14774  -1.14717  -1.14610
  Beta  occ. eigenvalues --   -1.14589  -1.14404  -1.14291  -1.13815  -1.13811
  Beta  occ. eigenvalues --   -1.13672  -1.13558  -1.13434  -1.13372  -1.13334
  Beta  occ. eigenvalues --   -1.13257  -1.13198  -1.12980  -1.12842  -1.12831
  Beta  occ. eigenvalues --   -0.20907  -0.14213  -0.11432
  Beta virt. eigenvalues --   -0.08348  -0.06304  -0.03846  -0.03230  -0.03151
  Beta virt. eigenvalues --   -0.01979  -0.01834  -0.01662  -0.00335  -0.00051
  Beta virt. eigenvalues --    0.00275   0.00592   0.00779   0.00993   0.01029

 Mulliken charges and spin densities:
               1          2
     1  Na   0.205605   0.012254
     2  Na  -0.236933   0.223786
     3  Na  -0.231424  -0.139948
     4  Na  -0.316380   0.061584
     5  Na   0.187157   0.443325
     6  Na   0.159629   0.414706
     7  Na   0.232346  -0.015707
 Sum of Mulliken charges =  -0.00000   1.00000

 Dipole moment (field-independent basis, Debye):
    X=              0.7646    Y=             -0.0309    Z=             -0.1251  Tot=              0.7753
 Quadrupole moment (field-independent basis, Debye-Ang):
   XX=            -51.4265   YY=            -77.7143   ZZ=            -66.2289
   XY=              0.1128   XZ=              0.0349   YZ=              3.0615

 Normal termination of Gaussian 16 at Mon Nov 13 20:04:08 2023.
