 Gaussian 16, Revision B.01,
 Gaussian 16:  ES64L-G16RevB.01 20-Dec-2017

 -------------------------
 #P B3LYP/6-311+g(d) force
 -------------------------

 ------------------------------
 Gaussian input prepared by ASE
 ------------------------------
 Symbolic Z-matrix:
 Charge =  0 Multiplicity = 2

                         Standard orientation:
 ---------------------------------------------------------------------
 Center     Atomic      Atomic             Coordinates (Angstroms)
 Number     Number       Type             X           Y           Z
 ---------------------------------------------------------------------
      1         11           0        0.522030    1.070453   -0.389281
      2         11           0       -0.507553   -1.581292   -1.346549
      3         11           0        3.482205    1.259001    0.041771
      4         11           0        2.126079   -1.413313    0.079137
      5         11           0       -0.430089   -0.991453    1.582808
      6         11           0       -2.987149   -0.622525    0.054190
      7         11           0       -2.205523    2.279128   -0.022075
 ---------------------------------------------------------------------

 SCF Done:  E(UB3LYP) =  -1136.09691977     A.U. after   25 cycles

 The electronic state is 2-A.
 Alpha  occ. eigenvalues --  -38.45158 -38.44964 -38.43906 -38.43766 -38.43454
 Alpha  occ. eigenvalues --  -38.43332 -38.42953  -2.21138  -2.20837  -2.19982
 Alpha  occ. eigenvalues --   -2.19658  -2.19617  -2.19431  -2.19050  -1.14843
 Alpha  occ. eigenvalues --   -1.14811  -1.14780  -1.14557  -1.14513  -1.14458
 Alpha  occ. eigenvalues --   -1.13794  -1.13643  -1.13609  -1.13439  -1.13385
 Alpha  occ. eigenvalues --   -1.13317  -1.13295  -1.13265  -1.13163  -1.13102
 Alpha  occ. eigenvalues --   -1.13071  -1.12999  -1.12720  -1.12690  -1.12603
 Alpha  occ. eigenvalues --   -0.20127  -0.14669  -0.11999  -0.10603
 Alpha virt. eigenvalues --   -0.06979  -0.05473  -0.03641  -0.03586  -0.02557
 Alpha virt. eigenvalues --   -0.02054  -0.01759  -0.01125  -0.00308  -0.00117
 Alpha virt. eigenvalues --    0.00124   0.00322   0.00689   0.00734   0.00780

  Beta  occ. eigenvalues --  -38.45144 -38.44971 -38.43890 -38.43765 -38.43421
  Beta  occ. eigenvalues --  -38.43260 -38.42892  -2.21118  -2.20850  -2.19959
  Beta  occ. eigenvalues --   -2.19658  -2.19567  -2.19299  -2.18939  -1.14836
  Beta  occ. eigenvalues --   -1.14778  -1.14742  -1.14567  -1.14523  -1.14457
  Beta  occ. eigenvalues --   -1.13780  -1.13604  -1.13569  -1.13430  -1.13356
  Beta  occ. eigenvalues --   -1.13316  -1.13258  -1.13186  -1.13143  -1.13026
  Beta  occ. eigenvalues --   -1.12974  -1.12904  -1.12646  -1.12614  -1.12506
  Beta  occ. eigenvalues --   -0.19360  -0.14421  -0.11837
  Beta virt. eigenvalues --   -0.06841  -0.06494  -0.05431  -0.03513  -0.02775
  Beta virt. eigenvalues --   -0.02493  -0.01475  -0.01243  -0.00697  -0.00304
  Beta virt. eigenvalues --    0.00137   0.00184   0.00344   0.00724   0.00800

 Mulliken charges and spin densities:
               1          2
     1  Na  -1.481729   0.378948
     2  Na  -0.231527   0.071895
     3  Na   0.068192  -0.152691
     4  Na   1.796292   0.312084
     5  Na  -0.963117   0.240851
     6  Na   1.089326   0.287912
     7  Na  -0.277436  -0.138998
 Sum of Mulliken charges =  -0.00000   1.00000

 Dipole moment (field-independent basis, Debye):
    X=              0.2224    Y=             -0.0604    Z=              0.0460  Tot=              0.2350
 Quadrupole moment (field-independent basis, Debye-Ang):
   XX=            -46.8107   YY=            -69.6663   ZZ=            -75.6790
   XY=              1.5375   XZ=              0.7026   YZ=              0.9101

 Normal termination of Gaussian 16 at Mon Nov 13 16:57:50 2023.
