 Gaussian 16, Revision B.01,
 Gaussian 16:  ES64L-G16RevB.01 20-Dec-2017

 -------------------------
 #P B3LYP/6-311+g(d) force
 -------------------------

 ------------------------------
 Gaussian input prepared by ASE
 ------------------------------
 Symbolic Z-matrix:
 Charge =  0 Multiplicity = 2

                         Standard orientation:
 ---------------------------------------------------------------------
 Center     Atomic      Atomic             Coordinates (Angstroms)
 Number     Number       Type             X           Y           Z
 ---------------------------------------------------------------------
      1         11           0        0.043651   -0.003210   -1.243389
      2         11           0        1.319940   -1.928780    0.684201
      3         11           0        3.012933    0.005707   -0.856801
      4         11           0        1.308694    1.926078    0.687241
      5         11           0       -0.808433   -0.008201    1.601374
      6         11           0       -2.431002    1.495497   -0.431722
      7         11           0       -2.445783   -1.487090   -0.440903
 ---------------------------------------------------------------------

 SCF Done:  E(UB3LYP) =  -1136.10281785     A.U. after   20 cycles

 The electronic state is 2-A.
 Alpha  occ. eigenvalues --  -38.44491 -38.43923 -38.43909 -38.43420 -38.43406
 Alpha  occ. eigenvalues --  -38.43023 -38.43009  -2.20477  -2.19924  -2.19898
 Alpha  occ. eigenvalues --   -2.19694  -2.19622  -2.19026  -2.19012  -1.14208
 Alpha  occ. eigenvalues --   -1.14122  -1.14117  -1.13835  -1.13629  -1.13609
 Alpha  occ. eigenvalues --   -1.13599  -1.13567  -1.13515  -1.13415  -1.13311
 Alpha  occ. eigenvalues --   -1.13279  -1.13271  -1.13203  -1.13203  -1.12717
 Alpha  occ. eigenvalues --   -1.12703  -1.12681  -1.12667  -1.12612  -1.12595
 Alpha  occ. eigenvalues --   -0.20483  -0.14660  -0.11692  -0.11472
 Alpha virt. eigenvalues --   -0.06019  -0.04878  -0.04146  -0.03178  -0.02404
 Alpha virt. eigenvalues --   -0.02226  -0.01875  -0.00763  -0.00303   0.00277
 Alpha virt. eigenvalues --    0.00410   0.00542   0.00798   0.00933   0.00976

  Beta  occ. eigenvalues --  -38.44465 -38.43909 -38.43895 -38.43359 -38.43335
  Beta  occ. eigenvalues --  -38.43003 -38.42988  -2.20430  -2.19902  -2.19876
  Beta  occ. eigenvalues --   -2.19612  -2.19471  -2.18994  -2.18979  -1.14175
  Beta  occ. eigenvalues --   -1.14088  -1.14076  -1.13811  -1.13599  -1.13592
  Beta  occ. eigenvalues --   -1.13553  -1.13529  -1.13443  -1.13393  -1.13251
  Beta  occ. eigenvalues --   -1.13234  -1.13171  -1.13104  -1.13093  -1.12695
  Beta  occ. eigenvalues --   -1.12683  -1.12621  -1.12606  -1.12590  -1.12574
  Beta  occ. eigenvalues --   -0.19730  -0.14315  -0.11425
  Beta virt. eigenvalues --   -0.07389  -0.05879  -0.04872  -0.03461  -0.02996
  Beta virt. eigenvalues --   -0.01729  -0.01697  -0.01209  -0.00747  -0.00066
  Beta virt. eigenvalues --    0.00318   0.00460   0.00516   0.00872   0.00934

 Mulliken charges and spin densities:
               1          2
     1  Na  -1.073401   0.210960
     2  Na  -0.324347   0.035905
     3  Na   0.891077   0.107232
     4  Na  -0.322220   0.034710
     5  Na   0.142327   0.463097
     6  Na   0.344616   0.075899
     7  Na   0.341948   0.072197
 Sum of Mulliken charges =  -0.00000   1.00000

 Dipole moment (field-independent basis, Debye):
    X=             -0.1098    Y=             -0.0022    Z=             -0.0498  Tot=              0.1206
 Quadrupole moment (field-independent basis, Debye-Ang):
   XX=            -51.1779   YY=            -71.4826   ZZ=            -70.5883
   XY=              0.0095   XZ=              0.3380   YZ=             -0.0008

 Normal termination of Gaussian 16 at Mon Nov 13 17:47:18 2023.
