 Gaussian 16, Revision B.01,
 Gaussian 16:  ES64L-G16RevB.01 20-Dec-2017

 -------------------------
 #P B3LYP/6-311+g(d) force
 -------------------------

 ------------------------------
 Gaussian input prepared by ASE
 ------------------------------
 Symbolic Z-matrix:
 Charge =  0 Multiplicity = 2

                         Standard orientation:
 ---------------------------------------------------------------------
 Center     Atomic      Atomic             Coordinates (Angstroms)
 Number     Number       Type             X           Y           Z
 ---------------------------------------------------------------------
      1         11           0        0.428176   -1.669813   -1.042380
      2         11           0       -2.358420   -2.333119   -0.141789
      3         11           0       -3.342512    0.156547    1.212968
      4         11           0       -2.176297    2.480020   -0.280494
      5         11           0        0.456807    1.330640   -1.140282
      6         11           0        2.026709   -0.118339    0.964733
      7         11           0        4.965538    0.154064    0.427245
 ---------------------------------------------------------------------

 SCF Done:  E(UB3LYP) =  -1136.10204077     A.U. after   21 cycles

 The electronic state is 2-A.
 Alpha  occ. eigenvalues --  -38.45408 -38.44840 -38.44503 -38.44325 -38.43834
 Alpha  occ. eigenvalues --  -38.43326 -38.43087  -2.21241  -2.20800  -2.20401
 Alpha  occ. eigenvalues --   -2.20309  -2.19817  -2.19212  -2.18974  -1.14941
 Alpha  occ. eigenvalues --   -1.14860  -1.14854  -1.14551  -1.14459  -1.14417
 Alpha  occ. eigenvalues --   -1.14086  -1.14060  -1.14029  -1.14008  -1.13956
 Alpha  occ. eigenvalues --   -1.13931  -1.13477  -1.13464  -1.13457  -1.12890
 Alpha  occ. eigenvalues --   -1.12857  -1.12838  -1.12661  -1.12636  -1.12598
 Alpha  occ. eigenvalues --   -0.18345  -0.14729  -0.11833  -0.11770
 Alpha virt. eigenvalues --   -0.06303  -0.05071  -0.04791  -0.03608  -0.03137
 Alpha virt. eigenvalues --   -0.02510  -0.01947  -0.01047  -0.00609  -0.00215
 Alpha virt. eigenvalues --    0.00026   0.00047   0.00498   0.00664   0.00699

  Beta  occ. eigenvalues --  -38.45314 -38.44836 -38.44442 -38.44269 -38.43801
  Beta  occ. eigenvalues --  -38.43319 -38.43084  -2.21066  -2.20801  -2.20291
  Beta  occ. eigenvalues --   -2.20209  -2.19757  -2.19202  -2.18971  -1.14828
  Beta  occ. eigenvalues --   -1.14740  -1.14735  -1.14504  -1.14466  -1.14403
  Beta  occ. eigenvalues --   -1.14002  -1.13990  -1.13954  -1.13920  -1.13894
  Beta  occ. eigenvalues --   -1.13874  -1.13449  -1.13427  -1.13400  -1.12868
  Beta  occ. eigenvalues --   -1.12847  -1.12832  -1.12639  -1.12632  -1.12599
  Beta  occ. eigenvalues --   -0.17774  -0.13799  -0.11756
  Beta virt. eigenvalues --   -0.08252  -0.05882  -0.04793  -0.04251  -0.03366
  Beta virt. eigenvalues --   -0.02771  -0.02160  -0.01443  -0.00902  -0.00284
  Beta virt. eigenvalues --   -0.00072   0.00084   0.00222   0.00614   0.00728

 Mulliken charges and spin densities:
               1          2
     1  Na  -0.078985   0.090041
     2  Na   0.175692  -0.038926
     3  Na  -0.176511   0.548504
     4  Na   0.179769  -0.149319
     5  Na  -0.309285   0.223024
     6  Na  -0.173865   0.084811
     7  Na   0.383185   0.241864
 Sum of Mulliken charges =  -0.00000   1.00000

 Dipole moment (field-independent basis, Debye):
    X=              1.5064    Y=             -0.0207    Z=             -0.0663  Tot=              1.5080
 Quadrupole moment (field-independent basis, Debye-Ang):
   XX=            -58.1811   YY=            -75.7308   ZZ=            -66.3513
   XY=              0.3323   XZ=             -3.5355   YZ=             -0.1399

 Normal termination of Gaussian 16 at Mon Nov 13 14:54:12 2023.
