 Gaussian 16, Revision B.01,
 Gaussian 16:  ES64L-G16RevB.01 20-Dec-2017

 -------------------------
 #P B3LYP/6-311+g(d) force
 -------------------------

 ------------------------------
 Gaussian input prepared by ASE
 ------------------------------
 Symbolic Z-matrix:
 Charge =  0 Multiplicity = 2

                         Standard orientation:
 ---------------------------------------------------------------------
 Center     Atomic      Atomic             Coordinates (Angstroms)
 Number     Number       Type             X           Y           Z
 ---------------------------------------------------------------------
      1         11           0        2.781790    1.987346    0.862322
      2         11           0        0.448978    0.472082   -0.272495
      3         11           0        2.137187   -1.737165   -1.409614
      4         11           0       -0.262570   -2.395162    0.258743
      5         11           0       -1.027755   -0.275161    2.235349
      6         11           0       -2.410179   -0.415919   -0.416926
      7         11           0       -1.667451    2.363980   -1.257380
 ---------------------------------------------------------------------

 SCF Done:  E(UB3LYP) =  -1136.10186378     A.U. after   21 cycles

 The electronic state is 2-A.
 Alpha  occ. eigenvalues --  -38.44579 -38.44361 -38.44049 -38.43826 -38.43615
 Alpha  occ. eigenvalues --  -38.43016 -38.42359  -2.20580  -2.20163  -2.19943
 Alpha  occ. eigenvalues --   -2.19725  -2.19690  -2.19088  -2.18642  -1.14320
 Alpha  occ. eigenvalues --   -1.14200  -1.14174  -1.13863  -1.13799  -1.13781
 Alpha  occ. eigenvalues --   -1.13679  -1.13594  -1.13542  -1.13531  -1.13433
 Alpha  occ. eigenvalues --   -1.13386  -1.13346  -1.13312  -1.13233  -1.12820
 Alpha  occ. eigenvalues --   -1.12733  -1.12697  -1.12349  -1.12300  -1.12255
 Alpha  occ. eigenvalues --   -0.19555  -0.13066  -0.12464  -0.11655
 Alpha virt. eigenvalues --   -0.05411  -0.04959  -0.04160  -0.03196  -0.03074
 Alpha virt. eigenvalues --   -0.02486  -0.01236  -0.00937  -0.00509   0.00263
 Alpha virt. eigenvalues --    0.00372   0.00511   0.00771   0.00858   0.00900

  Beta  occ. eigenvalues --  -38.44493 -38.44331 -38.44012 -38.43796 -38.43599
  Beta  occ. eigenvalues --  -38.43004 -38.42337  -2.20420  -2.20109  -2.19877
  Beta  occ. eigenvalues --   -2.19678  -2.19661  -2.19074  -2.18612  -1.14218
  Beta  occ. eigenvalues --   -1.14091  -1.14059  -1.13826  -1.13759  -1.13746
  Beta  occ. eigenvalues --   -1.13633  -1.13551  -1.13499  -1.13488  -1.13420
  Beta  occ. eigenvalues --   -1.13356  -1.13302  -1.13272  -1.13196  -1.12818
  Beta  occ. eigenvalues --   -1.12707  -1.12651  -1.12304  -1.12251  -1.12228
  Beta  occ. eigenvalues --   -0.18815  -0.12663  -0.12100
  Beta virt. eigenvalues --   -0.07906  -0.05091  -0.04589  -0.04048  -0.02799
  Beta virt. eigenvalues --   -0.02563  -0.01659  -0.01114  -0.00796  -0.00208
  Beta virt. eigenvalues --    0.00343   0.00406   0.00584   0.00882   0.00915

 Mulliken charges and spin densities:
               1          2
     1  Na   0.245129   0.206517
     2  Na  -1.709202   0.573533
     3  Na   0.459906  -0.100935
     4  Na   0.364960   0.290643
     5  Na  -0.175364   0.328834
     6  Na   1.157383  -0.283085
     7  Na  -0.342811  -0.015506
 Sum of Mulliken charges =  -0.00000   1.00000

 Dipole moment (field-independent basis, Debye):
    X=              0.1352    Y=              0.2228    Z=              0.3151  Tot=              0.4089
 Quadrupole moment (field-independent basis, Debye-Ang):
   XX=            -61.2917   YY=            -65.1035   ZZ=            -65.7271
   XY=              0.1640   XZ=              0.3184   YZ=              1.7177

 Normal termination of Gaussian 16 at Mon Nov 13 19:44:20 2023.
