 Gaussian 16, Revision B.01,
 Gaussian 16:  ES64L-G16RevB.01 20-Dec-2017

 -------------------------
 #P B3LYP/6-311+g(d) force
 -------------------------

 ------------------------------
 Gaussian input prepared by ASE
 ------------------------------
 Symbolic Z-matrix:
 Charge =  0 Multiplicity = 2

                         Standard orientation:
 ---------------------------------------------------------------------
 Center     Atomic      Atomic             Coordinates (Angstroms)
 Number     Number       Type             X           Y           Z
 ---------------------------------------------------------------------
      1         11           0       -1.496623    0.348741   -1.524045
      2         11           0       -1.463439   -1.520007    0.395813
      3         11           0        0.687184   -0.516840    1.627613
      4         11           0        2.845895    0.141521   -0.030838
      5         11           0        0.660071   -1.154215   -1.202565
      6         11           0        0.504077    1.652434   -0.296036
      7         11           0       -1.737164    1.048366    1.030057
 ---------------------------------------------------------------------

 SCF Done:  E(UB3LYP) =  -1136.02850531     A.U. after   32 cycles

 The electronic state is 2-A.
 Alpha  occ. eigenvalues --  -38.45353 -38.44834 -38.44771 -38.44614 -38.44543
 Alpha  occ. eigenvalues --  -38.44039 -38.43262  -2.21699  -2.21117  -2.20956
 Alpha  occ. eigenvalues --   -2.20899  -2.20831  -2.20347  -2.19600  -1.15729
 Alpha  occ. eigenvalues --   -1.15553  -1.15353  -1.15046  -1.14961  -1.14850
 Alpha  occ. eigenvalues --   -1.14823  -1.14705  -1.14632  -1.14539  -1.14506
 Alpha  occ. eigenvalues --   -1.14449  -1.14413  -1.14326  -1.14300  -1.13915
 Alpha  occ. eigenvalues --   -1.13870  -1.13805  -1.13278  -1.13210  -1.13159
 Alpha  occ. eigenvalues --   -0.22651  -0.14457  -0.13557  -0.12132
 Alpha virt. eigenvalues --   -0.05820  -0.04312  -0.04038  -0.03705  -0.02980
 Alpha virt. eigenvalues --   -0.02753  -0.01129  -0.00398  -0.00134   0.00254
 Alpha virt. eigenvalues --    0.00782   0.01006   0.01055   0.01111   0.01144

  Beta  occ. eigenvalues --  -38.45284 -38.44787 -38.44768 -38.44539 -38.44475
  Beta  occ. eigenvalues --  -38.44018 -38.43238  -2.21578  -2.21037  -2.20864
  Beta  occ. eigenvalues --   -2.20795  -2.20775  -2.20317  -2.19566  -1.15666
  Beta  occ. eigenvalues --   -1.15436  -1.15267  -1.14963  -1.14910  -1.14794
  Beta  occ. eigenvalues --   -1.14759  -1.14644  -1.14552  -1.14498  -1.14434
  Beta  occ. eigenvalues --   -1.14386  -1.14325  -1.14272  -1.14218  -1.13893
  Beta  occ. eigenvalues --   -1.13797  -1.13767  -1.13264  -1.13147  -1.13105
  Beta  occ. eigenvalues --   -0.21729  -0.14228  -0.11853
  Beta virt. eigenvalues --   -0.08894  -0.05735  -0.03711  -0.03514  -0.03365
  Beta virt. eigenvalues --   -0.02188  -0.02021  -0.01084  -0.00132  -0.00117
  Beta virt. eigenvalues --    0.00296   0.00856   0.01114   0.01130   0.01137

 Mulliken charges and spin densities:
               1          2
     1  Na   0.305256  -0.004023
     2  Na   0.339642   0.043247
     3  Na  -0.563016   0.189576
     4  Na   1.131413  -0.048205
     5  Na  -0.621446   0.288796
     6  Na  -0.746993   0.345338
     7  Na   0.155144   0.185271
 Sum of Mulliken charges =  -0.00000   1.00000

 Dipole moment (field-independent basis, Debye):
    X=              0.5093    Y=              0.0254    Z=              0.1469  Tot=              0.5307
 Quadrupole moment (field-independent basis, Debye-Ang):
   XX=            -58.3418   YY=            -77.2314   ZZ=            -63.6700
   XY=              0.0846   XZ=             -0.4949   YZ=              1.9122

 Normal termination of Gaussian 16 at Mon Nov 13 19:54:52 2023.
