 Gaussian 16, Revision B.01,
 Gaussian 16:  ES64L-G16RevB.01 20-Dec-2017

 -------------------------
 #P B3LYP/6-311+g(d) force
 -------------------------

 ------------------------------
 Gaussian input prepared by ASE
 ------------------------------
 Symbolic Z-matrix:
 Charge =  0 Multiplicity = 2

                         Standard orientation:
 ---------------------------------------------------------------------
 Center     Atomic      Atomic             Coordinates (Angstroms)
 Number     Number       Type             X           Y           Z
 ---------------------------------------------------------------------
      1         11           0       -2.050242    0.867368   -1.044249
      2         11           0       -0.210175    2.808750    0.301733
      3         11           0       -3.494183   -0.582748    1.149164
      4         11           0       -1.439295   -2.008336   -0.502884
      5         11           0        0.756025    0.043079   -0.367611
      6         11           0        3.577001    0.889004    0.230354
      7         11           0        2.860869   -2.017118    0.233492
 ---------------------------------------------------------------------

 SCF Done:  E(UB3LYP) =  -1136.10443627     A.U. after   21 cycles

 The electronic state is 2-A.
 Alpha  occ. eigenvalues --  -38.44463 -38.44404 -38.44098 -38.43814 -38.43468
 Alpha  occ. eigenvalues --  -38.43182 -38.42810  -2.20371  -2.20292  -2.20183
 Alpha  occ. eigenvalues --   -2.19748  -2.19464  -2.19081  -2.19029  -1.14162
 Alpha  occ. eigenvalues --   -1.14031  -1.14002  -1.13974  -1.13930  -1.13928
 Alpha  occ. eigenvalues --   -1.13889  -1.13851  -1.13850  -1.13434  -1.13378
 Alpha  occ. eigenvalues --   -1.13350  -1.13199  -1.13102  -1.13052  -1.12859
 Alpha  occ. eigenvalues --   -1.12733  -1.12717  -1.12706  -1.12659  -1.12573
 Alpha  occ. eigenvalues --   -0.18919  -0.14984  -0.12210  -0.10398
 Alpha virt. eigenvalues --   -0.05907  -0.05798  -0.04143  -0.03765  -0.02473
 Alpha virt. eigenvalues --   -0.02067  -0.01386  -0.01098  -0.00793  -0.00410
 Alpha virt. eigenvalues --    0.00069   0.00273   0.00581   0.00752   0.00777

  Beta  occ. eigenvalues --  -38.44422 -38.44401 -38.44076 -38.43730 -38.43440
  Beta  occ. eigenvalues --  -38.43186 -38.42762  -2.20302  -2.20283  -2.20153
  Beta  occ. eigenvalues --   -2.19591  -2.19420  -2.19088  -2.18952  -1.14135
  Beta  occ. eigenvalues --   -1.13979  -1.13961  -1.13953  -1.13923  -1.13903
  Beta  occ. eigenvalues --   -1.13842  -1.13814  -1.13802  -1.13344  -1.13270
  Beta  occ. eigenvalues --   -1.13242  -1.13146  -1.13077  -1.12980  -1.12846
  Beta  occ. eigenvalues --   -1.12732  -1.12711  -1.12645  -1.12604  -1.12522
  Beta  occ. eigenvalues --   -0.18261  -0.14453  -0.11976
  Beta virt. eigenvalues --   -0.06656  -0.05691  -0.05559  -0.04069  -0.03161
  Beta virt. eigenvalues --   -0.02204  -0.01630  -0.01111  -0.00759  -0.00494
  Beta virt. eigenvalues --   -0.00305   0.00301   0.00409   0.00695   0.00829

 Mulliken charges and spin densities:
               1          2
     1  Na  -0.630410   0.316691
     2  Na   0.941224  -0.101737
     3  Na   0.654856   0.370431
     4  Na   0.658760  -0.100023
     5  Na  -1.966614   0.144182
     6  Na  -0.023409   0.308423
     7  Na   0.365592   0.062034
 Sum of Mulliken charges =  -0.00000   1.00000

 Dipole moment (field-independent basis, Debye):
    X=              0.9701    Y=             -0.1261    Z=              0.1458  Tot=              0.9891
 Quadrupole moment (field-independent basis, Debye-Ang):
   XX=            -64.8679   YY=            -64.6261   ZZ=            -68.8752
   XY=             -1.7547   XZ=              1.9583   YZ=             -0.0370

 Normal termination of Gaussian 16 at Mon Nov 13 17:29:31 2023.
