 Gaussian 16, Revision B.01,
 Gaussian 16:  ES64L-G16RevB.01 20-Dec-2017

 -------------------------
 #P B3LYP/6-311+g(d) force
 -------------------------

 ------------------------------
 Gaussian input prepared by ASE
 ------------------------------
 Symbolic Z-matrix:
 Charge =  0 Multiplicity = 2

                         Standard orientation:
 ---------------------------------------------------------------------
 Center     Atomic      Atomic             Coordinates (Angstroms)
 Number     Number       Type             X           Y           Z
 ---------------------------------------------------------------------
      1         11           0       -0.294207   -0.425125   -1.548253
      2         11           0       -0.792327   -1.407934    1.072771
      3         11           0       -3.005466   -0.163267   -0.422041
      4         11           0       -0.974217    1.688401    0.651342
      5         11           0        1.357696    0.359354    1.588709
      6         11           0        1.698818    1.514971   -0.970440
      7         11           0        2.009702   -1.566400   -0.372088
 ---------------------------------------------------------------------

 SCF Done:  E(UB3LYP) =  -1136.08496607     A.U. after   22 cycles

 The electronic state is 2-A.
 Alpha  occ. eigenvalues --  -38.44394 -38.44349 -38.44073 -38.43591 -38.43410
 Alpha  occ. eigenvalues --  -38.43364 -38.42810  -2.20580  -2.20398  -2.20352
 Alpha  occ. eigenvalues --   -2.19686  -2.19600  -2.19452  -2.18953  -1.14375
 Alpha  occ. eigenvalues --   -1.14310  -1.14273  -1.14232  -1.14139  -1.14060
 Alpha  occ. eigenvalues --   -1.14043  -1.13997  -1.13918  -1.13356  -1.13325
 Alpha  occ. eigenvalues --   -1.13299  -1.13269  -1.13222  -1.13188  -1.13109
 Alpha  occ. eigenvalues --   -1.13098  -1.12994  -1.12674  -1.12597  -1.12530
 Alpha  occ. eigenvalues --   -0.21464  -0.14261  -0.12705  -0.11963
 Alpha virt. eigenvalues --   -0.05676  -0.04158  -0.04002  -0.03638  -0.02895
 Alpha virt. eigenvalues --   -0.02796  -0.01347  -0.00370  -0.00312   0.00304
 Alpha virt. eigenvalues --    0.00687   0.00912   0.00970   0.01040   0.01086

  Beta  occ. eigenvalues --  -38.44388 -38.44277 -38.43998 -38.43558 -38.43366
  Beta  occ. eigenvalues --  -38.43350 -38.42787  -2.20452  -2.20385  -2.20221
  Beta  occ. eigenvalues --   -2.19631  -2.19524  -2.19433  -2.18916  -1.14293
  Beta  occ. eigenvalues --   -1.14224  -1.14201  -1.14138  -1.14075  -1.14026
  Beta  occ. eigenvalues --   -1.14014  -1.13921  -1.13846  -1.13317  -1.13266
  Beta  occ. eigenvalues --   -1.13249  -1.13221  -1.13157  -1.13122  -1.13081
  Beta  occ. eigenvalues --   -1.13059  -1.12966  -1.12646  -1.12546  -1.12494
  Beta  occ. eigenvalues --   -0.20618  -0.13997  -0.11719
  Beta virt. eigenvalues --   -0.08264  -0.05600  -0.04015  -0.03415  -0.03228
  Beta virt. eigenvalues --   -0.02123  -0.01846  -0.01281  -0.00348  -0.00064
  Beta virt. eigenvalues --    0.00337   0.00747   0.00910   0.01047   0.01086

 Mulliken charges and spin densities:
               1          2
     1  Na   0.040825   0.483488
     2  Na  -0.641142   0.177965
     3  Na   0.889254  -0.036253
     4  Na  -0.799335   0.116706
     5  Na   0.785464   0.331906
     6  Na  -0.122927   0.010713
     7  Na  -0.152138  -0.084526
 Sum of Mulliken charges =  -0.00000   1.00000

 Dipole moment (field-independent basis, Debye):
    X=             -0.3223    Y=              0.0489    Z=             -0.1753  Tot=              0.3701
 Quadrupole moment (field-independent basis, Debye-Ang):
   XX=            -55.8082   YY=            -74.6698   ZZ=            -65.7981
   XY=             -0.2623   XZ=             -0.0738   YZ=             -0.8281

 Normal termination of Gaussian 16 at Mon Nov 13 20:03:43 2023.
