 Gaussian 16, Revision B.01,
 Gaussian 16:  ES64L-G16RevB.01 20-Dec-2017

 -------------------------
 #P B3LYP/6-311+g(d) force
 -------------------------

 ------------------------------
 Gaussian input prepared by ASE
 ------------------------------
 Symbolic Z-matrix:
 Charge =  0 Multiplicity = 2

                         Standard orientation:
 ---------------------------------------------------------------------
 Center     Atomic      Atomic             Coordinates (Angstroms)
 Number     Number       Type             X           Y           Z
 ---------------------------------------------------------------------
      1         11           0        1.852859   -0.195805   -1.365058
      2         11           0        1.850180   -0.189308    1.367606
      3         11           0        1.018995    1.983422   -0.004733
      4         11           0        0.330305   -1.943585    0.004018
      5         11           0       -0.852229    0.094829   -1.352165
      6         11           0       -0.851366    0.101479    1.350215
      7         11           0       -3.348745    0.148968    0.000116
 ---------------------------------------------------------------------

 SCF Done:  E(UB3LYP) =  -1136.03581635     A.U. after   28 cycles

 The electronic state is 2-A.
 Alpha  occ. eigenvalues --  -38.45138 -38.45133 -38.45129 -38.44581 -38.44578
 Alpha  occ. eigenvalues --  -38.43209 -38.42976  -2.21488  -2.21421  -2.21068
 Alpha  occ. eigenvalues --   -2.20984  -2.20913  -2.19491  -2.19166  -1.15559
 Alpha  occ. eigenvalues --   -1.15376  -1.15328  -1.15144  -1.15099  -1.15027
 Alpha  occ. eigenvalues --   -1.14855  -1.14845  -1.14790  -1.14641  -1.14551
 Alpha  occ. eigenvalues --   -1.14514  -1.14442  -1.14427  -1.14330  -1.13180
 Alpha  occ. eigenvalues --   -1.13096  -1.13013  -1.12883  -1.12794  -1.12734
 Alpha  occ. eigenvalues --   -0.22141  -0.14359  -0.13099  -0.11968
 Alpha virt. eigenvalues --   -0.06359  -0.04100  -0.03846  -0.03495  -0.02782
 Alpha virt. eigenvalues --   -0.02511  -0.01679  -0.00463  -0.00171   0.00255
 Alpha virt. eigenvalues --    0.00587   0.00755   0.00990   0.01047   0.01055

  Beta  occ. eigenvalues --  -38.45127 -38.45073 -38.45069 -38.44513 -38.44510
  Beta  occ. eigenvalues --  -38.43189 -38.42961  -2.21376  -2.21309  -2.21061
  Beta  occ. eigenvalues --   -2.20872  -2.20795  -2.19463  -2.19146  -1.15500
  Beta  occ. eigenvalues --   -1.15257  -1.15220  -1.15069  -1.15034  -1.14947
  Beta  occ. eigenvalues --   -1.14813  -1.14781  -1.14741  -1.14634  -1.14481
  Beta  occ. eigenvalues --   -1.14439  -1.14362  -1.14346  -1.14227  -1.13170
  Beta  occ. eigenvalues --   -1.13005  -1.12994  -1.12879  -1.12729  -1.12712
  Beta  occ. eigenvalues --   -0.21271  -0.14242  -0.11578
  Beta virt. eigenvalues --   -0.08480  -0.06275  -0.03526  -0.03503  -0.03168
  Beta virt. eigenvalues --   -0.01891  -0.01795  -0.01624  -0.00145  -0.00139
  Beta virt. eigenvalues --    0.00286   0.00651   0.00940   0.00996   0.01045

 Mulliken charges and spin densities:
               1          2
     1  Na   0.108511   0.035077
     2  Na   0.095738   0.032758
     3  Na   0.162687   0.137956
     4  Na   0.467112   0.082573
     5  Na  -0.314295   0.335817
     6  Na  -0.309575   0.336476
     7  Na  -0.210176   0.039343
 Sum of Mulliken charges =  -0.00000   1.00000

 Dipole moment (field-independent basis, Debye):
    X=             -0.8012    Y=              0.1572    Z=             -0.0034  Tot=              0.8165
 Quadrupole moment (field-independent basis, Debye-Ang):
   XX=            -53.3785   YY=            -77.1781   ZZ=            -65.4570
   XY=             -0.1865   XZ=             -0.0054   YZ=             -0.0039

 Normal termination of Gaussian 16 at Mon Nov 13 20:01:16 2023.
