 Gaussian 16, Revision B.01,
 Gaussian 16:  ES64L-G16RevB.01 20-Dec-2017

 -------------------------
 #P B3LYP/6-311+g(d) force
 -------------------------

 ------------------------------
 Gaussian input prepared by ASE
 ------------------------------
 Symbolic Z-matrix:
 Charge =  0 Multiplicity = 2

                         Standard orientation:
 ---------------------------------------------------------------------
 Center     Atomic      Atomic             Coordinates (Angstroms)
 Number     Number       Type             X           Y           Z
 ---------------------------------------------------------------------
      1         11           0       -1.491746   -2.971688   -0.802215
      2         11           0       -2.904326   -1.227775    1.188037
      3         11           0       -2.647930    3.600784   -0.394177
      4         11           0       -1.192847    1.080858    0.319479
      5         11           0        0.631723   -0.866742   -1.057696
      6         11           0        3.023237   -1.033315    0.745169
      7         11           0        4.581888    1.417878    0.001403
 ---------------------------------------------------------------------

 SCF Done:  E(UB3LYP) =  -1136.10042012     A.U. after   22 cycles

 The electronic state is 2-A.
 Alpha  occ. eigenvalues --  -38.44553 -38.44431 -38.44414 -38.44315 -38.44041
 Alpha  occ. eigenvalues --  -38.44028 -38.43542  -2.20379  -2.20311  -2.20309
 Alpha  occ. eigenvalues --   -2.20233  -2.20026  -2.19835  -2.19510  -1.14147
 Alpha  occ. eigenvalues --   -1.14075  -1.14062  -1.14024  -1.14015  -1.13999
 Alpha  occ. eigenvalues --   -1.13949  -1.13948  -1.13927  -1.13874  -1.13847
 Alpha  occ. eigenvalues --   -1.13779  -1.13739  -1.13644  -1.13581  -1.13556
 Alpha  occ. eigenvalues --   -1.13486  -1.13478  -1.13191  -1.13129  -1.13111
 Alpha  occ. eigenvalues --   -0.17923  -0.14250  -0.12271  -0.10525
 Alpha virt. eigenvalues --   -0.06657  -0.05816  -0.03952  -0.03481  -0.03157
 Alpha virt. eigenvalues --   -0.02403  -0.01771  -0.01343  -0.00893  -0.00386
 Alpha virt. eigenvalues --   -0.00223  -0.00151   0.00402   0.00510   0.00605

  Beta  occ. eigenvalues --  -38.44489 -38.44432 -38.44405 -38.44232 -38.44048
  Beta  occ. eigenvalues --  -38.43960 -38.43528  -2.20322  -2.20300  -2.20259
  Beta  occ. eigenvalues --   -2.20079  -2.19902  -2.19849  -2.19488  -1.14094
  Beta  occ. eigenvalues --   -1.14045  -1.14026  -1.13986  -1.13971  -1.13948
  Beta  occ. eigenvalues --   -1.13924  -1.13916  -1.13836  -1.13822  -1.13745
  Beta  occ. eigenvalues --   -1.13694  -1.13655  -1.13568  -1.13560  -1.13513
  Beta  occ. eigenvalues --   -1.13496  -1.13486  -1.13139  -1.13117  -1.13104
  Beta  occ. eigenvalues --   -0.17352  -0.13604  -0.12098
  Beta virt. eigenvalues --   -0.07053  -0.06396  -0.05479  -0.03661  -0.03018
  Beta virt. eigenvalues --   -0.02578  -0.02365  -0.01593  -0.00977  -0.00772
  Beta virt. eigenvalues --   -0.00120  -0.00002   0.00098   0.00513   0.00559

 Mulliken charges and spin densities:
               1          2
     1  Na  -0.141677  -0.118368
     2  Na   1.540261   0.487982
     3  Na  -0.536921  -0.107795
     4  Na  -1.891564  -0.168038
     5  Na   0.201085   0.704554
     6  Na   0.964756  -0.114263
     7  Na  -0.135940   0.315929
 Sum of Mulliken charges =  -0.00000   1.00000

 Dipole moment (field-independent basis, Debye):
    X=              0.3143    Y=             -0.2313    Z=             -0.4527  Tot=              0.5977
 Quadrupole moment (field-independent basis, Debye-Ang):
   XX=            -68.9494   YY=            -60.6400   ZZ=            -68.7532
   XY=             -0.1537   XZ=              1.0019   YZ=             -1.9912

 Normal termination of Gaussian 16 at Mon Nov 13 15:01:41 2023.
