 Gaussian 16, Revision B.01,
 Gaussian 16:  ES64L-G16RevB.01 20-Dec-2017

 -------------------------
 #P B3LYP/6-311+g(d) force
 -------------------------

 ------------------------------
 Gaussian input prepared by ASE
 ------------------------------
 Symbolic Z-matrix:
 Charge =  0 Multiplicity = 2

                         Standard orientation:
 ---------------------------------------------------------------------
 Center     Atomic      Atomic             Coordinates (Angstroms)
 Number     Number       Type             X           Y           Z
 ---------------------------------------------------------------------
      1         11           0        1.381429    0.327096   -1.586161
      2         11           0       -4.058835   -0.562581   -0.838905
      3         11           0        1.576731    2.910483   -0.072883
      4         11           0       -0.850651    2.143144    1.508134
      5         11           0       -1.155187   -0.354223   -0.127188
      6         11           0        0.267106   -2.629717    1.218576
      7         11           0        2.839407   -1.834202   -0.101574
 ---------------------------------------------------------------------

 SCF Done:  E(UB3LYP) =  -1136.10482882     A.U. after   19 cycles

 The electronic state is 2-A.
 Alpha  occ. eigenvalues --  -38.44440 -38.44404 -38.44320 -38.44301 -38.44039
 Alpha  occ. eigenvalues --  -38.43996 -38.43305  -2.20326  -2.20221  -2.20214
 Alpha  occ. eigenvalues --   -2.20199  -2.19988  -2.19927  -2.19363  -1.14074
 Alpha  occ. eigenvalues --   -1.14054  -1.13961  -1.13930  -1.13917  -1.13913
 Alpha  occ. eigenvalues --   -1.13895  -1.13846  -1.13843  -1.13835  -1.13813
 Alpha  occ. eigenvalues --   -1.13763  -1.13742  -1.13697  -1.13593  -1.13554
 Alpha  occ. eigenvalues --   -1.13544  -1.13480  -1.13044  -1.13005  -1.12991
 Alpha  occ. eigenvalues --   -0.18506  -0.13446  -0.12958  -0.10694
 Alpha virt. eigenvalues --   -0.06353  -0.05395  -0.04278  -0.03401  -0.03279
 Alpha virt. eigenvalues --   -0.02184  -0.01621  -0.01187  -0.00283  -0.00117
 Alpha virt. eigenvalues --    0.00010   0.00199   0.00464   0.00713   0.00769

  Beta  occ. eigenvalues --  -38.44440 -38.44366 -38.44266 -38.44255 -38.44039
  Beta  occ. eigenvalues --  -38.43934 -38.43294  -2.20330  -2.20143  -2.20121
  Beta  occ. eigenvalues --   -2.20114  -2.19934  -2.19873  -2.19349  -1.14053
  Beta  occ. eigenvalues --   -1.14033  -1.13966  -1.13871  -1.13866  -1.13854
  Beta  occ. eigenvalues --   -1.13841  -1.13797  -1.13794  -1.13762  -1.13749
  Beta  occ. eigenvalues --   -1.13719  -1.13704  -1.13619  -1.13570  -1.13523
  Beta  occ. eigenvalues --   -1.13510  -1.13436  -1.13004  -1.13002  -1.12958
  Beta  occ. eigenvalues --   -0.17974  -0.13067  -0.12489
  Beta virt. eigenvalues --   -0.07337  -0.06004  -0.05125  -0.03953  -0.02902
  Beta virt. eigenvalues --   -0.02804  -0.01880  -0.01232  -0.01075  -0.00066
  Beta virt. eigenvalues --   -0.00012   0.00171   0.00337   0.00695   0.00737

 Mulliken charges and spin densities:
               1          2
     1  Na  -0.356878   0.286058
     2  Na  -0.339659   0.120511
     3  Na  -0.171428  -0.080425
     4  Na   0.817580   0.163769
     5  Na  -0.936148   0.437772
     6  Na  -0.119694   0.058014
     7  Na   1.106227   0.014299
 Sum of Mulliken charges =  -0.00000   1.00000

 Dipole moment (field-independent basis, Debye):
    X=              0.3381    Y=              0.0351    Z=              0.5056  Tot=              0.6093
 Quadrupole moment (field-independent basis, Debye-Ang):
   XX=            -57.3727   YY=            -64.6979   ZZ=            -71.6456
   XY=             -0.1305   XZ=              0.6861   YZ=             -0.1774

 Normal termination of Gaussian 16 at Mon Nov 13 15:24:45 2023.
