 Gaussian 16, Revision B.01,
 Gaussian 16:  ES64L-G16RevB.01 20-Dec-2017

 -------------------------
 #P B3LYP/6-311+g(d) force
 -------------------------

 ------------------------------
 Gaussian input prepared by ASE
 ------------------------------
 Symbolic Z-matrix:
 Charge =  0 Multiplicity = 2

                         Standard orientation:
 ---------------------------------------------------------------------
 Center     Atomic      Atomic             Coordinates (Angstroms)
 Number     Number       Type             X           Y           Z
 ---------------------------------------------------------------------
      1         11           0       -1.060021    1.724580   -0.047109
      2         11           0       -0.664242   -0.977183   -1.302450
      3         11           0       -3.427619    0.018242   -0.727740
      4         11           0       -1.610487   -0.768661    1.525267
      5         11           0        1.303609   -1.224454    0.955653
      6         11           0        1.904714    1.675033    0.463448
      7         11           0        3.554046   -0.447557   -0.867069
 ---------------------------------------------------------------------

 SCF Done:  E(UB3LYP) =  -1136.09247596     A.U. after   33 cycles

 The electronic state is 2-A.
 Alpha  occ. eigenvalues --  -38.45182 -38.45126 -38.44651 -38.44020 -38.43271
 Alpha  occ. eigenvalues --  -38.43080 -38.42757  -2.21119  -2.21087  -2.20713
 Alpha  occ. eigenvalues --   -2.20120  -2.19258  -2.19173  -2.18837  -1.14864
 Alpha  occ. eigenvalues --   -1.14789  -1.14788  -1.14728  -1.14727  -1.14698
 Alpha  occ. eigenvalues --   -1.14484  -1.14338  -1.14331  -1.13834  -1.13776
 Alpha  occ. eigenvalues --   -1.13692  -1.13033  -1.12968  -1.12895  -1.12864
 Alpha  occ. eigenvalues --   -1.12821  -1.12723  -1.12528  -1.12475  -1.12452
 Alpha  occ. eigenvalues --   -0.20299  -0.15347  -0.11528  -0.11067
 Alpha virt. eigenvalues --   -0.07294  -0.04876  -0.04550  -0.03069  -0.02879
 Alpha virt. eigenvalues --   -0.02096  -0.01938  -0.01019  -0.00528   0.00056
 Alpha virt. eigenvalues --    0.00177   0.00344   0.00510   0.00846   0.00919

  Beta  occ. eigenvalues --  -38.45137 -38.45090 -38.44639 -38.43960 -38.43260
  Beta  occ. eigenvalues --  -38.43051 -38.42726  -2.21055  -2.21001  -2.20693
  Beta  occ. eigenvalues --   -2.20014  -2.19244  -2.19128  -2.18790  -1.14827
  Beta  occ. eigenvalues --   -1.14737  -1.14730  -1.14685  -1.14667  -1.14640
  Beta  occ. eigenvalues --   -1.14458  -1.14314  -1.14311  -1.13752  -1.13699
  Beta  occ. eigenvalues --   -1.13611  -1.13019  -1.12939  -1.12864  -1.12840
  Beta  occ. eigenvalues --   -1.12735  -1.12704  -1.12506  -1.12443  -1.12368
  Beta  occ. eigenvalues --   -0.19546  -0.14969  -0.10814
  Beta virt. eigenvalues --   -0.07594  -0.07033  -0.04604  -0.04066  -0.02893
  Beta virt. eigenvalues --   -0.02618  -0.01462  -0.01241  -0.00597  -0.00448
  Beta virt. eigenvalues --    0.00114   0.00256   0.00428   0.00570   0.00871

 Mulliken charges and spin densities:
               1          2
     1  Na  -0.988128   0.266683
     2  Na  -1.142081   0.125042
     3  Na   2.325550   0.142651
     4  Na  -0.352796   0.121514
     5  Na   0.069491   0.301692
     6  Na  -0.929498  -0.182018
     7  Na   1.017461   0.224436
 Sum of Mulliken charges =  -0.00000   1.00000

 Dipole moment (field-independent basis, Debye):
    X=             -0.2570    Y=             -0.3844    Z=             -0.3196  Tot=              0.5621
 Quadrupole moment (field-independent basis, Debye-Ang):
   XX=            -46.6001   YY=            -81.6639   ZZ=            -66.8567
   XY=             -0.0737   XZ=             -2.4691   YZ=              1.5227

 Normal termination of Gaussian 16 at Mon Nov 13 18:01:00 2023.
