 Gaussian 16, Revision B.01,
 Gaussian 16:  ES64L-G16RevB.01 20-Dec-2017

 -------------------------
 #P B3LYP/6-311+g(d) force
 -------------------------

 ------------------------------
 Gaussian input prepared by ASE
 ------------------------------
 Symbolic Z-matrix:
 Charge =  0 Multiplicity = 2

                         Standard orientation:
 ---------------------------------------------------------------------
 Center     Atomic      Atomic             Coordinates (Angstroms)
 Number     Number       Type             X           Y           Z
 ---------------------------------------------------------------------
      1         11           0        0.809398   -2.264010    0.245009
      2         11           0        2.822724   -0.839528   -1.463432
      3         11           0       -4.265983    0.292580   -0.077463
      4         11           0       -1.761080   -1.166642   -0.846575
      5         11           0        0.938151   -0.348777    2.547593
      6         11           0        0.536232    0.675595   -0.244929
      7         11           0        0.920559    3.650782   -0.160202
 ---------------------------------------------------------------------

 SCF Done:  E(UB3LYP) =  -1136.09449703     A.U. after   30 cycles

 The electronic state is 2-A.
 Alpha  occ. eigenvalues --  -38.45390 -38.45358 -38.44839 -38.43651 -38.43603
 Alpha  occ. eigenvalues --  -38.43171 -38.42861  -2.21291  -2.21275  -2.20621
 Alpha  occ. eigenvalues --   -2.19685  -2.19603  -2.19037  -2.18967  -1.14992
 Alpha  occ. eigenvalues --   -1.14981  -1.14921  -1.14892  -1.14883  -1.14862
 Alpha  occ. eigenvalues --   -1.14321  -1.14273  -1.14260  -1.13495  -1.13369
 Alpha  occ. eigenvalues --   -1.13330  -1.13307  -1.13210  -1.13175  -1.12795
 Alpha  occ. eigenvalues --   -1.12739  -1.12674  -1.12609  -1.12605  -1.12540
 Alpha  occ. eigenvalues --   -0.19226  -0.12963  -0.12007  -0.11718
 Alpha virt. eigenvalues --   -0.06852  -0.05088  -0.03628  -0.03194  -0.02946
 Alpha virt. eigenvalues --   -0.02650  -0.02152  -0.01017  -0.00637  -0.00205
 Alpha virt. eigenvalues --    0.00147   0.00236   0.00526   0.00642   0.00888

  Beta  occ. eigenvalues --  -38.45316 -38.45235 -38.44850 -38.43641 -38.43580
  Beta  occ. eigenvalues --  -38.43181 -38.42838  -2.21156  -2.21050  -2.20642
  Beta  occ. eigenvalues --   -2.19654  -2.19585  -2.19007  -2.18983  -1.14904
  Beta  occ. eigenvalues --   -1.14831  -1.14826  -1.14792  -1.14724  -1.14703
  Beta  occ. eigenvalues --   -1.14335  -1.14287  -1.14275  -1.13487  -1.13355
  Beta  occ. eigenvalues --   -1.13295  -1.13230  -1.13182  -1.13164  -1.12797
  Beta  occ. eigenvalues --   -1.12663  -1.12645  -1.12617  -1.12610  -1.12542
  Beta  occ. eigenvalues --   -0.18310  -0.12824  -0.11601
  Beta virt. eigenvalues --   -0.07766  -0.06587  -0.04949  -0.03176  -0.02710
  Beta virt. eigenvalues --   -0.02524  -0.01966  -0.01741  -0.01003  -0.00327
  Beta virt. eigenvalues --   -0.00173   0.00183   0.00331   0.00606   0.00706

 Mulliken charges and spin densities:
               1          2
     1  Na   3.205412  -0.004843
     2  Na   0.588129   0.356918
     3  Na   0.209152  -0.054079
     4  Na   1.354497   0.205609
     5  Na  -0.320839   0.548801
     6  Na  -4.192087   0.088120
     7  Na  -0.844264  -0.140525
 Sum of Mulliken charges =  -0.00000   1.00000

 Dipole moment (field-independent basis, Debye):
    X=              0.1657    Y=             -0.3894    Z=              0.6435  Tot=              0.7702
 Quadrupole moment (field-independent basis, Debye-Ang):
   XX=            -55.3683   YY=            -69.2588   ZZ=            -66.8271
   XY=             -5.2356   XZ=             -3.6865   YZ=              0.5955

 Normal termination of Gaussian 16 at Mon Nov 13 18:34:54 2023.
