 Gaussian 16, Revision B.01,
 Gaussian 16:  ES64L-G16RevB.01 20-Dec-2017

 -------------------------
 #P B3LYP/6-311+g(d) force
 -------------------------

 ------------------------------
 Gaussian input prepared by ASE
 ------------------------------
 Symbolic Z-matrix:
 Charge =  0 Multiplicity = 2

                         Standard orientation:
 ---------------------------------------------------------------------
 Center     Atomic      Atomic             Coordinates (Angstroms)
 Number     Number       Type             X           Y           Z
 ---------------------------------------------------------------------
      1         11           0        2.499108    0.826052   -0.301986
      2         11           0        0.410208   -0.671972   -1.853863
      3         11           0        0.839253   -3.001842   -0.017786
      4         11           0        1.035022   -0.668191    1.854196
      5         11           0        0.512116    3.048679   -0.003513
      6         11           0       -1.211578    0.615928    0.324358
      7         11           0       -4.084128   -0.148654   -0.001406
 ---------------------------------------------------------------------

 SCF Done:  E(UB3LYP) =  -1136.10578207     A.U. after   21 cycles

 The electronic state is 2-A.
 Alpha  occ. eigenvalues --  -38.44260 -38.44227 -38.44168 -38.44152 -38.44108
 Alpha  occ. eigenvalues --  -38.44068 -38.42762  -2.20182  -2.20169  -2.20149
 Alpha  occ. eigenvalues --   -2.20092  -2.20012  -2.20007  -2.18848  -1.13997
 Alpha  occ. eigenvalues --   -1.13944  -1.13934  -1.13882  -1.13859  -1.13851
 Alpha  occ. eigenvalues --   -1.13817  -1.13782  -1.13770  -1.13717  -1.13711
 Alpha  occ. eigenvalues --   -1.13672  -1.13659  -1.13657  -1.13652  -1.13615
 Alpha  occ. eigenvalues --   -1.13605  -1.13554  -1.12536  -1.12514  -1.12460
 Alpha  occ. eigenvalues --   -0.19644  -0.13014  -0.12403  -0.11400
 Alpha virt. eigenvalues --   -0.06218  -0.05536  -0.03377  -0.03322  -0.02921
 Alpha virt. eigenvalues --   -0.02687  -0.01730  -0.01504  -0.00167   0.00022
 Alpha virt. eigenvalues --    0.00191   0.00412   0.00631   0.00709   0.00935

  Beta  occ. eigenvalues --  -38.44263 -38.44240 -38.44144 -38.44100 -38.44062
  Beta  occ. eigenvalues --  -38.43979 -38.42739  -2.20161  -2.20137  -2.20037
  Beta  occ. eigenvalues --   -2.20013  -2.19994  -2.19927  -2.18813  -1.13955
  Beta  occ. eigenvalues --   -1.13921  -1.13865  -1.13851  -1.13815  -1.13757
  Beta  occ. eigenvalues --   -1.13751  -1.13738  -1.13731  -1.13675  -1.13673
  Beta  occ. eigenvalues --   -1.13669  -1.13657  -1.13623  -1.13603  -1.13563
  Beta  occ. eigenvalues --   -1.13538  -1.13483  -1.12506  -1.12455  -1.12442
  Beta  occ. eigenvalues --   -0.18817  -0.12754  -0.12314
  Beta virt. eigenvalues --   -0.07244  -0.06083  -0.05468  -0.03317  -0.02480
  Beta virt. eigenvalues --   -0.02110  -0.01980  -0.01489  -0.01453  -0.00032
  Beta virt. eigenvalues --    0.00062   0.00239   0.00415   0.00691   0.00856

 Mulliken charges and spin densities:
               1          2
     1  Na   0.743930   0.164229
     2  Na  -0.325746   0.531676
     3  Na   0.132846  -0.120117
     4  Na  -0.097140   0.407370
     5  Na   0.763776  -0.046242
     6  Na  -1.066372   0.278109
     7  Na  -0.151294  -0.215026
 Sum of Mulliken charges =  -0.00000   1.00000

 Dipole moment (field-independent basis, Debye):
    X=              0.3147    Y=             -0.1993    Z=             -0.1277  Tot=              0.3938
 Quadrupole moment (field-independent basis, Debye-Ang):
   XX=            -61.0922   YY=            -59.7874   ZZ=            -71.9786
   XY=              1.4938   XZ=              0.6209   YZ=              0.0024

 Normal termination of Gaussian 16 at Mon Nov 13 18:38:14 2023.
