 Gaussian 16, Revision B.01,
 Gaussian 16:  ES64L-G16RevB.01 20-Dec-2017

 -------------------------
 #P B3LYP/6-311+g(d) force
 -------------------------

 ------------------------------
 Gaussian input prepared by ASE
 ------------------------------
 Symbolic Z-matrix:
 Charge =  0 Multiplicity = 2

                         Standard orientation:
 ---------------------------------------------------------------------
 Center     Atomic      Atomic             Coordinates (Angstroms)
 Number     Number       Type             X           Y           Z
 ---------------------------------------------------------------------
      1         11           0       -0.419614    1.904610    0.250794
      2         11           0       -0.862954    0.304700   -2.251545
      3         11           0        2.556567    1.504016    0.107172
      4         11           0        2.573618   -1.484754   -0.160293
      5         11           0       -0.400397   -1.902601   -0.264986
      6         11           0       -2.716854   -0.019301    0.056225
      7         11           0       -0.730365   -0.306670    2.262634
 ---------------------------------------------------------------------

 SCF Done:  E(UB3LYP) =  -1136.10467057     A.U. after   23 cycles

 The electronic state is 2-A.
 Alpha  occ. eigenvalues --  -38.45067 -38.45059 -38.44153 -38.43722 -38.43681
 Alpha  occ. eigenvalues --  -38.42690 -38.42683  -2.21076  -2.21067  -2.20236
 Alpha  occ. eigenvalues --   -2.19611  -2.19568  -2.18774  -2.18763  -1.14810
 Alpha  occ. eigenvalues --   -1.14796  -1.14696  -1.14688  -1.14677  -1.14669
 Alpha  occ. eigenvalues --   -1.13940  -1.13904  -1.13843  -1.13399  -1.13319
 Alpha  occ. eigenvalues --   -1.13270  -1.13243  -1.13194  -1.13133  -1.12456
 Alpha  occ. eigenvalues --   -1.12452  -1.12447  -1.12432  -1.12388  -1.12379
 Alpha  occ. eigenvalues --   -0.20319  -0.13694  -0.12818  -0.11763
 Alpha virt. eigenvalues --   -0.05669  -0.04659  -0.04162  -0.03767  -0.03264
 Alpha virt. eigenvalues --   -0.03052  -0.01283  -0.00505  -0.00270   0.00298
 Alpha virt. eigenvalues --    0.00533   0.00579   0.00603   0.00923   0.01069

  Beta  occ. eigenvalues --  -38.44967 -38.44961 -38.44135 -38.43725 -38.43685
  Beta  occ. eigenvalues --  -38.42667 -38.42661  -2.20895  -2.20889  -2.20213
  Beta  occ. eigenvalues --   -2.19618  -2.19576  -2.18740  -2.18729  -1.14695
  Beta  occ. eigenvalues --   -1.14680  -1.14562  -1.14556  -1.14547  -1.14541
  Beta  occ. eigenvalues --   -1.13935  -1.13842  -1.13804  -1.13408  -1.13322
  Beta  occ. eigenvalues --   -1.13273  -1.13241  -1.13191  -1.13141  -1.12438
  Beta  occ. eigenvalues --   -1.12421  -1.12372  -1.12370  -1.12366  -1.12361
  Beta  occ. eigenvalues --   -0.19388  -0.13472  -0.11525
  Beta virt. eigenvalues --   -0.08569  -0.05519  -0.04549  -0.03469  -0.03059
  Beta virt. eigenvalues --   -0.02891  -0.02184  -0.01244  -0.00264  -0.00182
  Beta virt. eigenvalues --    0.00362   0.00533   0.00608   0.00889   0.01017

 Mulliken charges and spin densities:
               1          2
     1  Na  -0.147923  -0.050401
     2  Na  -0.394267   0.518964
     3  Na  -0.286708  -0.046816
     4  Na  -0.275049  -0.073018
     5  Na  -0.130776  -0.010025
     6  Na   1.691504   0.124359
     7  Na  -0.456782   0.536938
 Sum of Mulliken charges =  -0.00000   1.00000

 Dipole moment (field-independent basis, Debye):
    X=             -0.1503    Y=             -0.0131    Z=             -0.0085  Tot=              0.1511
 Quadrupole moment (field-independent basis, Debye-Ang):
   XX=            -58.9829   YY=            -77.1281   ZZ=            -61.9660
   XY=             -0.0256   XZ=             -0.0375   YZ=              1.3811

 Normal termination of Gaussian 16 at Mon Nov 13 17:55:29 2023.
