 Gaussian 16, Revision B.01,
 Gaussian 16:  ES64L-G16RevB.01 20-Dec-2017

 -------------------------
 #P B3LYP/6-311+g(d) force
 -------------------------

 ------------------------------
 Gaussian input prepared by ASE
 ------------------------------
 Symbolic Z-matrix:
 Charge =  0 Multiplicity = 2

                         Standard orientation:
 ---------------------------------------------------------------------
 Center     Atomic      Atomic             Coordinates (Angstroms)
 Number     Number       Type             X           Y           Z
 ---------------------------------------------------------------------
      1         11           0       -0.910011   -1.640094   -1.043964
      2         11           0        1.501369    2.169092    1.498066
      3         11           0        3.585765   -1.965534    0.063106
      4         11           0        1.519184    0.085610   -0.660417
      5         11           0       -0.319881    2.451165   -0.861610
      6         11           0       -2.690177    0.675300   -0.361112
      7         11           0       -2.686248   -1.775538    1.365930
 ---------------------------------------------------------------------

 SCF Done:  E(UB3LYP) =  -1136.10405659     A.U. after   21 cycles

 The electronic state is 2-A.
 Alpha  occ. eigenvalues --  -38.44550 -38.44541 -38.44318 -38.44092 -38.43979
 Alpha  occ. eigenvalues --  -38.43293 -38.43031  -2.20525  -2.20336  -2.20295
 Alpha  occ. eigenvalues --   -2.20001  -2.19898  -2.19289  -2.19115  -1.14279
 Alpha  occ. eigenvalues --   -1.14233  -1.14169  -1.14044  -1.14015  -1.13987
 Alpha  occ. eigenvalues --   -1.13979  -1.13970  -1.13880  -1.13728  -1.13634
 Alpha  occ. eigenvalues --   -1.13613  -1.13538  -1.13523  -1.13498  -1.13032
 Alpha  occ. eigenvalues --   -1.12952  -1.12903  -1.12806  -1.12763  -1.12695
 Alpha  occ. eigenvalues --   -0.18821  -0.14163  -0.12405  -0.10631
 Alpha virt. eigenvalues --   -0.06580  -0.04667  -0.04409  -0.04106  -0.02697
 Alpha virt. eigenvalues --   -0.02133  -0.01834  -0.00969  -0.00428  -0.00064
 Alpha virt. eigenvalues --    0.00168   0.00206   0.00488   0.00769   0.00817

  Beta  occ. eigenvalues --  -38.44563 -38.44519 -38.44289 -38.44031 -38.43923
  Beta  occ. eigenvalues --  -38.43273 -38.43005  -2.20493  -2.20361  -2.20248
  Beta  occ. eigenvalues --   -2.19886  -2.19792  -2.19260  -2.19077  -1.14265
  Beta  occ. eigenvalues --   -1.14170  -1.14132  -1.14061  -1.14003  -1.13984
  Beta  occ. eigenvalues --   -1.13967  -1.13924  -1.13849  -1.13658  -1.13553
  Beta  occ. eigenvalues --   -1.13533  -1.13467  -1.13454  -1.13426  -1.13018
  Beta  occ. eigenvalues --   -1.12933  -1.12835  -1.12761  -1.12701  -1.12680
  Beta  occ. eigenvalues --   -0.18087  -0.13730  -0.12254
  Beta virt. eigenvalues --   -0.06941  -0.06404  -0.04459  -0.03981  -0.03679
  Beta virt. eigenvalues --   -0.02290  -0.01899  -0.01185  -0.00904  -0.00356
  Beta virt. eigenvalues --    0.00139   0.00303   0.00321   0.00589   0.00858

 Mulliken charges and spin densities:
               1          2
     1  Na  -0.736591   0.188110
     2  Na  -0.072766   0.235509
     3  Na   0.269566  -0.080088
     4  Na  -0.353152   0.155868
     5  Na   0.146290   0.113380
     6  Na   0.476775   0.086671
     7  Na   0.269877   0.300549
 Sum of Mulliken charges =  -0.00000   1.00000

 Dipole moment (field-independent basis, Debye):
    X=             -0.1107    Y=             -0.3283    Z=              0.5645  Tot=              0.6623
 Quadrupole moment (field-independent basis, Debye-Ang):
   XX=            -60.2213   YY=            -66.0907   ZZ=            -69.3508
   XY=             -4.2013   XZ=              2.1820   YZ=             -1.3701

 Normal termination of Gaussian 16 at Mon Nov 13 16:11:18 2023.
