 Gaussian 16, Revision B.01,
 Gaussian 16:  ES64L-G16RevB.01 20-Dec-2017

 -------------------------
 #P B3LYP/6-311+g(d) force
 -------------------------

 ------------------------------
 Gaussian input prepared by ASE
 ------------------------------
 Symbolic Z-matrix:
 Charge =  0 Multiplicity = 2

                         Standard orientation:
 ---------------------------------------------------------------------
 Center     Atomic      Atomic             Coordinates (Angstroms)
 Number     Number       Type             X           Y           Z
 ---------------------------------------------------------------------
      1         11           0        0.993346    0.176914    1.433618
      2         11           0       -1.025558   -1.660444    0.185737
      3         11           0       -3.497745   -0.428976   -0.985720
      4         11           0       -1.788556    1.152004    0.903183
      5         11           0        0.539720    2.409991   -0.517355
      6         11           0        2.870364    0.549486   -0.874488
      7         11           0        1.908429   -2.198975   -0.144975
 ---------------------------------------------------------------------

 SCF Done:  E(UB3LYP) =  -1136.10360026     A.U. after   21 cycles

 The electronic state is 2-A.
 Alpha  occ. eigenvalues --  -38.44312 -38.44201 -38.43707 -38.43615 -38.43578
 Alpha  occ. eigenvalues --  -38.43469 -38.43436  -2.20226  -2.20193  -2.19799
 Alpha  occ. eigenvalues --   -2.19780  -2.19593  -2.19527  -2.19408  -1.13950
 Alpha  occ. eigenvalues --   -1.13940  -1.13889  -1.13871  -1.13832  -1.13824
 Alpha  occ. eigenvalues --   -1.13689  -1.13549  -1.13486  -1.13439  -1.13415
 Alpha  occ. eigenvalues --   -1.13365  -1.13311  -1.13223  -1.13195  -1.13174
 Alpha  occ. eigenvalues --   -1.13147  -1.13078  -1.13060  -1.13038  -1.13013
 Alpha  occ. eigenvalues --   -0.19867  -0.14692  -0.12645  -0.11026
 Alpha virt. eigenvalues --   -0.05959  -0.05184  -0.04261  -0.04058  -0.02674
 Alpha virt. eigenvalues --   -0.01845  -0.01709  -0.00610  -0.00232  -0.00187
 Alpha virt. eigenvalues --    0.00162   0.00330   0.00589   0.00805   0.00927

  Beta  occ. eigenvalues --  -38.44256 -38.44154 -38.43677 -38.43609 -38.43510
  Beta  occ. eigenvalues --  -38.43451 -38.43428  -2.20121  -2.20104  -2.19743
  Beta  occ. eigenvalues --   -2.19675  -2.19585  -2.19503  -2.19398  -1.13889
  Beta  occ. eigenvalues --   -1.13885  -1.13815  -1.13807  -1.13759  -1.13759
  Beta  occ. eigenvalues --   -1.13614  -1.13489  -1.13456  -1.13392  -1.13342
  Beta  occ. eigenvalues --   -1.13295  -1.13277  -1.13200  -1.13161  -1.13143
  Beta  occ. eigenvalues --   -1.13101  -1.13055  -1.13046  -1.13019  -1.12986
  Beta  occ. eigenvalues --   -0.19185  -0.14180  -0.12371
  Beta virt. eigenvalues --   -0.07261  -0.05713  -0.05015  -0.04057  -0.03516
  Beta virt. eigenvalues --   -0.02053  -0.01546  -0.01068  -0.00555  -0.00086
  Beta virt. eigenvalues --    0.00098   0.00247   0.00410   0.00672   0.00907

 Mulliken charges and spin densities:
               1          2
     1  Na  -0.621477   0.029936
     2  Na  -0.985465   0.086925
     3  Na   0.783327   0.150896
     4  Na   0.507964   0.228266
     5  Na  -0.118367   0.152754
     6  Na  -0.061269   0.240192
     7  Na   0.495287   0.111032
 Sum of Mulliken charges =  -0.00000   1.00000

 Dipole moment (field-independent basis, Debye):
    X=             -0.0796    Y=              0.0663    Z=             -0.3587  Tot=              0.3733
 Quadrupole moment (field-independent basis, Debye-Ang):
   XX=            -59.2416   YY=            -69.4958   ZZ=            -69.4518
   XY=             -2.5577   XZ=              0.7291   YZ=              0.4257

 Normal termination of Gaussian 16 at Mon Nov 13 16:50:40 2023.
