 Gaussian 16, Revision B.01,
 Gaussian 16:  ES64L-G16RevB.01 20-Dec-2017

 -------------------------
 #P B3LYP/6-311+g(d) force
 -------------------------

 ------------------------------
 Gaussian input prepared by ASE
 ------------------------------
 Symbolic Z-matrix:
 Charge =  0 Multiplicity = 2

                         Standard orientation:
 ---------------------------------------------------------------------
 Center     Atomic      Atomic             Coordinates (Angstroms)
 Number     Number       Type             X           Y           Z
 ---------------------------------------------------------------------
      1         11           0       -0.025671    0.981087   -0.074999
      2         11           0        0.596059   -1.541867    1.428097
      3         11           0        2.783894    1.903063    0.456306
      4         11           0        2.290279   -0.722153   -0.911249
      5         11           0       -0.512673   -1.694925   -1.349000
      6         11           0       -2.253401   -0.759768    0.911403
      7         11           0       -2.878487    1.834564   -0.460558
 ---------------------------------------------------------------------

 SCF Done:  E(UB3LYP) =  -1136.10115358     A.U. after   19 cycles

 The electronic state is 2-A.
 Alpha  occ. eigenvalues --  -38.43909 -38.43881 -38.43870 -38.43830 -38.43385
 Alpha  occ. eigenvalues --  -38.43332 -38.43019  -2.19956  -2.19915  -2.19802
 Alpha  occ. eigenvalues --   -2.19777  -2.19485  -2.19426  -2.19280  -1.13760
 Alpha  occ. eigenvalues --   -1.13727  -1.13680  -1.13662  -1.13618  -1.13579
 Alpha  occ. eigenvalues --   -1.13500  -1.13472  -1.13416  -1.13394  -1.13382
 Alpha  occ. eigenvalues --   -1.13374  -1.13268  -1.13159  -1.13117  -1.13088
 Alpha  occ. eigenvalues --   -1.13042  -1.12935  -1.12912  -1.12893  -1.12866
 Alpha  occ. eigenvalues --   -0.20264  -0.14255  -0.12212  -0.11191
 Alpha virt. eigenvalues --   -0.05757  -0.05420  -0.03843  -0.03395  -0.02492
 Alpha virt. eigenvalues --   -0.02018  -0.01733  -0.00915  -0.00381   0.00194
 Alpha virt. eigenvalues --    0.00260   0.00485   0.00763   0.00819   0.00921

  Beta  occ. eigenvalues --  -38.43905 -38.43877 -38.43838 -38.43799 -38.43327
  Beta  occ. eigenvalues --  -38.43279 -38.42990  -2.19903  -2.19864  -2.19795
  Beta  occ. eigenvalues --   -2.19770  -2.19383  -2.19331  -2.19238  -1.13729
  Beta  occ. eigenvalues --   -1.13698  -1.13644  -1.13627  -1.13557  -1.13519
  Beta  occ. eigenvalues --   -1.13491  -1.13465  -1.13403  -1.13379  -1.13359
  Beta  occ. eigenvalues --   -1.13357  -1.13222  -1.13083  -1.13038  -1.13007
  Beta  occ. eigenvalues --   -1.12960  -1.12868  -1.12860  -1.12855  -1.12795
  Beta  occ. eigenvalues --   -0.19459  -0.14046  -0.12008
  Beta virt. eigenvalues --   -0.06952  -0.05605  -0.05346  -0.03618  -0.02813
  Beta virt. eigenvalues --   -0.01924  -0.01661  -0.01270  -0.00658  -0.00075
  Beta virt. eigenvalues --    0.00211   0.00338   0.00494   0.00784   0.00944

 Mulliken charges and spin densities:
               1          2
     1  Na  -2.055110   0.486083
     2  Na  -0.234159   0.314735
     3  Na   0.270413  -0.093709
     4  Na   0.758590   0.055722
     5  Na  -0.035858   0.292798
     6  Na   0.943443   0.059945
     7  Na   0.352682  -0.115574
 Sum of Mulliken charges =  -0.00000   1.00000

 Dipole moment (field-independent basis, Debye):
    X=              0.0169    Y=             -0.0648    Z=              0.0257  Tot=              0.0717
 Quadrupole moment (field-independent basis, Debye-Ang):
   XX=            -54.1187   YY=            -67.9116   ZZ=            -70.8095
   XY=              0.1160   XZ=              1.2013   YZ=              0.1898

 Normal termination of Gaussian 16 at Mon Nov 13 16:58:31 2023.
