 Gaussian 16, Revision B.01,
 Gaussian 16:  ES64L-G16RevB.01 20-Dec-2017

 -------------------------
 #P B3LYP/6-311+g(d) force
 -------------------------

 ------------------------------
 Gaussian input prepared by ASE
 ------------------------------
 Symbolic Z-matrix:
 Charge =  0 Multiplicity = 2

                         Standard orientation:
 ---------------------------------------------------------------------
 Center     Atomic      Atomic             Coordinates (Angstroms)
 Number     Number       Type             X           Y           Z
 ---------------------------------------------------------------------
      1         11           0        0.213545   -0.966310   -0.969715
      2         11           0        2.751763   -2.318395   -0.118288
      3         11           0        3.796747    0.296729    0.910835
      4         11           0        1.427804    1.695564   -0.287432
      5         11           0       -1.325292    2.772836    0.223539
      6         11           0       -2.542892    0.177308   -0.661792
      7         11           0       -4.321676   -1.657731    0.902854
 ---------------------------------------------------------------------

 SCF Done:  E(UB3LYP) =  -1136.10288399     A.U. after   20 cycles

 The electronic state is 2-A.
 Alpha  occ. eigenvalues --  -38.44772 -38.44627 -38.44485 -38.44377 -38.43957
 Alpha  occ. eigenvalues --  -38.43874 -38.43619  -2.20668  -2.20507  -2.20404
 Alpha  occ. eigenvalues --   -2.20366  -2.19935  -2.19703  -2.19596  -1.14413
 Alpha  occ. eigenvalues --   -1.14375  -1.14301  -1.14223  -1.14192  -1.14141
 Alpha  occ. eigenvalues --   -1.14108  -1.14055  -1.14020  -1.14014  -1.13987
 Alpha  occ. eigenvalues --   -1.13984  -1.13599  -1.13581  -1.13539  -1.13454
 Alpha  occ. eigenvalues --   -1.13335  -1.13330  -1.13288  -1.13236  -1.13158
 Alpha  occ. eigenvalues --   -0.18460  -0.14881  -0.12239  -0.10911
 Alpha virt. eigenvalues --   -0.06704  -0.05338  -0.04769  -0.03531  -0.02882
 Alpha virt. eigenvalues --   -0.02303  -0.01773  -0.01225  -0.01042  -0.00351
 Alpha virt. eigenvalues --   -0.00073   0.00157   0.00417   0.00581   0.00664

  Beta  occ. eigenvalues --  -38.44753 -38.44638 -38.44414 -38.44301 -38.43943
  Beta  occ. eigenvalues --  -38.43813 -38.43616  -2.20640  -2.20525  -2.20273
  Beta  occ. eigenvalues --   -2.20230  -2.19917  -2.19603  -2.19585  -1.14361
  Beta  occ. eigenvalues --   -1.14339  -1.14286  -1.14241  -1.14197  -1.14150
  Beta  occ. eigenvalues --   -1.14023  -1.13976  -1.13931  -1.13920  -1.13907
  Beta  occ. eigenvalues --   -1.13893  -1.13574  -1.13562  -1.13504  -1.13392
  Beta  occ. eigenvalues --   -1.13292  -1.13266  -1.13241  -1.13232  -1.13112
  Beta  occ. eigenvalues --   -0.17896  -0.14425  -0.11761
  Beta virt. eigenvalues --   -0.07434  -0.06501  -0.04831  -0.04499  -0.03274
  Beta virt. eigenvalues --   -0.02361  -0.02131  -0.01389  -0.00912  -0.00887
  Beta virt. eigenvalues --   -0.00156   0.00189   0.00331   0.00544   0.00626

 Mulliken charges and spin densities:
               1          2
     1  Na   0.366111   0.070646
     2  Na   0.512314   0.010006
     3  Na   0.184224   0.241423
     4  Na  -1.048995   0.267353
     5  Na   0.950493  -0.119488
     6  Na  -1.144918   0.318105
     7  Na   0.180770   0.211956
 Sum of Mulliken charges =  -0.00000   1.00000

 Dipole moment (field-independent basis, Debye):
    X=              0.8411    Y=             -0.1049    Z=              0.5373  Tot=              1.0036
 Quadrupole moment (field-independent basis, Debye-Ang):
   XX=            -64.4037   YY=            -65.2745   ZZ=            -69.8841
   XY=             -7.4849   XZ=             -1.3454   YZ=             -1.7876

 Normal termination of Gaussian 16 at Mon Nov 13 14:53:29 2023.
