 Gaussian 16, Revision B.01,
 Gaussian 16:  ES64L-G16RevB.01 20-Dec-2017

 -------------------------
 #P B3LYP/6-311+g(d) force
 -------------------------

 ------------------------------
 Gaussian input prepared by ASE
 ------------------------------
 Symbolic Z-matrix:
 Charge =  0 Multiplicity = 2

                         Standard orientation:
 ---------------------------------------------------------------------
 Center     Atomic      Atomic             Coordinates (Angstroms)
 Number     Number       Type             X           Y           Z
 ---------------------------------------------------------------------
      1         11           0        0.421686    3.345520    0.421145
      2         11           0        0.122334    0.394417   -0.083520
      3         11           0       -2.715972    1.143143   -0.763033
      4         11           0       -2.178266   -1.047092    1.194392
      5         11           0       -0.602085   -2.380430   -0.974234
      6         11           0        1.847243   -1.948820    0.685256
      7         11           0        3.105060    0.493263   -0.480007
 ---------------------------------------------------------------------

 SCF Done:  E(UB3LYP) =  -1136.10398367     A.U. after   30 cycles

 The electronic state is 2-A.
 Alpha  occ. eigenvalues --  -38.44587 -38.44474 -38.44229 -38.43999 -38.43882
 Alpha  occ. eigenvalues --  -38.43591 -38.42422  -2.20469  -2.20278  -2.20131
 Alpha  occ. eigenvalues --   -2.19982  -2.19858  -2.19588  -2.18728  -1.14219
 Alpha  occ. eigenvalues --   -1.14133  -1.14074  -1.13994  -1.13927  -1.13893
 Alpha  occ. eigenvalues --   -1.13882  -1.13806  -1.13784  -1.13720  -1.13685
 Alpha  occ. eigenvalues --   -1.13624  -1.13553  -1.13453  -1.13446  -1.13290
 Alpha  occ. eigenvalues --   -1.13202  -1.13186  -1.12407  -1.12403  -1.12370
 Alpha  occ. eigenvalues --   -0.19194  -0.13758  -0.12977  -0.09380
 Alpha virt. eigenvalues --   -0.06372  -0.05287  -0.05107  -0.02968  -0.02468
 Alpha virt. eigenvalues --   -0.01689  -0.01498  -0.00918  -0.00825  -0.00402
 Alpha virt. eigenvalues --    0.00157   0.00425   0.00614   0.00751   0.00823

  Beta  occ. eigenvalues --  -38.44581 -38.44470 -38.44205 -38.43971 -38.43868
  Beta  occ. eigenvalues --  -38.43549 -38.42389  -2.20460  -2.20270  -2.20089
  Beta  occ. eigenvalues --   -2.19936  -2.19837  -2.19514  -2.18681  -1.14214
  Beta  occ. eigenvalues --   -1.14125  -1.14056  -1.13989  -1.13913  -1.13889
  Beta  occ. eigenvalues --   -1.13856  -1.13769  -1.13759  -1.13679  -1.13657
  Beta  occ. eigenvalues --   -1.13558  -1.13541  -1.13424  -1.13402  -1.13243
  Beta  occ. eigenvalues --   -1.13152  -1.13105  -1.12385  -1.12381  -1.12241
  Beta  occ. eigenvalues --   -0.18472  -0.13528  -0.12759
  Beta virt. eigenvalues --   -0.06309  -0.05589  -0.05213  -0.04910  -0.02309
  Beta virt. eigenvalues --   -0.01913  -0.01604  -0.01412  -0.00690  -0.00438
  Beta virt. eigenvalues --   -0.00295   0.00396   0.00553   0.00689   0.00827

 Mulliken charges and spin densities:
               1          2
     1  Na   0.147717  -0.249389
     2  Na  -5.302556   0.256062
     3  Na   1.116316   0.290432
     4  Na   0.905369   0.228739
     5  Na   1.501360   0.282407
     6  Na   1.227504   0.295131
     7  Na   0.404290  -0.103382
 Sum of Mulliken charges =  -0.00000   1.00000

 Dipole moment (field-independent basis, Debye):
    X=              0.3735    Y=              0.5326    Z=             -0.0719  Tot=              0.6545
 Quadrupole moment (field-independent basis, Debye-Ang):
   XX=            -54.3112   YY=            -57.4791   ZZ=            -77.3458
   XY=             -0.4731   XZ=              0.1673   YZ=              0.2792

 Normal termination of Gaussian 16 at Mon Nov 13 17:10:47 2023.
