 Gaussian 16, Revision B.01,
 Gaussian 16:  ES64L-G16RevB.01 20-Dec-2017

 -------------------------
 #P B3LYP/6-311+g(d) force
 -------------------------

 ------------------------------
 Gaussian input prepared by ASE
 ------------------------------
 Symbolic Z-matrix:
 Charge =  0 Multiplicity = 2

                         Standard orientation:
 ---------------------------------------------------------------------
 Center     Atomic      Atomic             Coordinates (Angstroms)
 Number     Number       Type             X           Y           Z
 ---------------------------------------------------------------------
      1         11           0        1.630915   -0.039865    1.490481
      2         11           0       -1.175299   -0.329227    1.424376
      3         11           0       -3.449883    0.041211   -0.410324
      4         11           0       -0.651682    0.004307   -1.326373
      5         11           0        0.368881    2.151283    0.228969
      6         11           0        0.818496   -2.148096   -0.206294
      7         11           0        2.458572    0.320387   -1.200834
 ---------------------------------------------------------------------

 SCF Done:  E(UB3LYP) =  -1136.08408924     A.U. after   24 cycles

 The electronic state is 2-A.
 Alpha  occ. eigenvalues --  -38.44997 -38.44375 -38.44313 -38.43891 -38.43852
 Alpha  occ. eigenvalues --  -38.42493 -38.42463  -2.20894  -2.20558  -2.20432
 Alpha  occ. eigenvalues --   -2.20177  -2.20047  -2.18582  -2.18554  -1.14646
 Alpha  occ. eigenvalues --   -1.14591  -1.14480  -1.14419  -1.14393  -1.14179
 Alpha  occ. eigenvalues --   -1.14136  -1.14059  -1.13999  -1.13976  -1.13833
 Alpha  occ. eigenvalues --   -1.13790  -1.13689  -1.13585  -1.13579  -1.12313
 Alpha  occ. eigenvalues --   -1.12273  -1.12241  -1.12206  -1.12144  -1.12131
 Alpha  occ. eigenvalues --   -0.21127  -0.14157  -0.12452  -0.11735
 Alpha virt. eigenvalues --   -0.06341  -0.04184  -0.03494  -0.03442  -0.02721
 Alpha virt. eigenvalues --   -0.02571  -0.01947  -0.00571  -0.00227   0.00256
 Alpha virt. eigenvalues --    0.00504   0.00624   0.00863   0.01011   0.01027

  Beta  occ. eigenvalues --  -38.44989 -38.44335 -38.44246 -38.43835 -38.43790
  Beta  occ. eigenvalues --  -38.42477 -38.42450  -2.20881  -2.20443  -2.20359
  Beta  occ. eigenvalues --   -2.20078  -2.19939  -2.18561  -2.18538  -1.14633
  Beta  occ. eigenvalues --   -1.14569  -1.14473  -1.14354  -1.14291  -1.14098
  Beta  occ. eigenvalues --   -1.14060  -1.13991  -1.13949  -1.13908  -1.13766
  Beta  occ. eigenvalues --   -1.13714  -1.13593  -1.13507  -1.13492  -1.12304
  Beta  occ. eigenvalues --   -1.12268  -1.12190  -1.12165  -1.12123  -1.12098
  Beta  occ. eigenvalues --   -0.20270  -0.13981  -0.11408
  Beta virt. eigenvalues --   -0.08037  -0.06234  -0.03617  -0.03429  -0.03186
  Beta virt. eigenvalues --   -0.01934  -0.01786  -0.01650  -0.00253  -0.00179
  Beta virt. eigenvalues --    0.00285   0.00564   0.00756   0.00850   0.01036

 Mulliken charges and spin densities:
               1          2
     1  Na   0.980248   0.118486
     2  Na  -0.093411   0.018458
     3  Na  -0.246360   0.125417
     4  Na   0.768475   0.278533
     5  Na  -1.153509   0.121397
     6  Na  -1.021961   0.409837
     7  Na   0.766518  -0.072129
 Sum of Mulliken charges =  -0.00000   1.00000

 Dipole moment (field-independent basis, Debye):
    X=             -0.5913    Y=              0.0737    Z=             -0.3068  Tot=              0.6702
 Quadrupole moment (field-independent basis, Debye-Ang):
   XX=            -51.0935   YY=            -76.2634   ZZ=            -66.2005
   XY=             -0.2100   XZ=             -0.5288   YZ=              0.0281

 Normal termination of Gaussian 16 at Mon Nov 13 19:53:22 2023.
