 Gaussian 16, Revision B.01,
 Gaussian 16:  ES64L-G16RevB.01 20-Dec-2017

 -------------------------
 #P B3LYP/6-311+g(d) force
 -------------------------

 ------------------------------
 Gaussian input prepared by ASE
 ------------------------------
 Symbolic Z-matrix:
 Charge =  0 Multiplicity = 2

                         Standard orientation:
 ---------------------------------------------------------------------
 Center     Atomic      Atomic             Coordinates (Angstroms)
 Number     Number       Type             X           Y           Z
 ---------------------------------------------------------------------
      1         11           0        0.406380   -0.005139   -1.493142
      2         11           0       -2.127448   -1.513997   -0.148572
      3         11           0       -0.453689    0.007354    1.628307
      4         11           0       -2.090075    1.563617   -0.153941
      5         11           0        0.855933    2.455154   -0.074244
      6         11           0        2.615863   -0.033337    0.317998
      7         11           0        0.793034   -2.473651   -0.076406
 ---------------------------------------------------------------------

 SCF Done:  E(UB3LYP) =  -1136.10932499     A.U. after   18 cycles

 The electronic state is 2-A.
 Alpha  occ. eigenvalues --  -38.43561 -38.43495 -38.43493 -38.43410 -38.43410
 Alpha  occ. eigenvalues --  -38.43234 -38.43220  -2.19596  -2.19542  -2.19523
 Alpha  occ. eigenvalues --   -2.19490  -2.19445  -2.19430  -2.19418  -1.13538
 Alpha  occ. eigenvalues --   -1.13488  -1.13445  -1.13326  -1.13303  -1.13270
 Alpha  occ. eigenvalues --   -1.13256  -1.13219  -1.13154  -1.13150  -1.13102
 Alpha  occ. eigenvalues --   -1.13090  -1.13063  -1.13045  -1.13023  -1.13019
 Alpha  occ. eigenvalues --   -1.12979  -1.12978  -1.12945  -1.12944  -1.12923
 Alpha  occ. eigenvalues --   -0.20845  -0.13529  -0.13387  -0.11206
 Alpha virt. eigenvalues --   -0.04980  -0.04790  -0.04729  -0.03190  -0.03040
 Alpha virt. eigenvalues --   -0.02124  -0.00998  -0.00954   0.00038   0.00355
 Alpha virt. eigenvalues --    0.00403   0.00410   0.01041   0.01043   0.01061

  Beta  occ. eigenvalues --  -38.43549 -38.43484 -38.43481 -38.43400 -38.43399
  Beta  occ. eigenvalues --  -38.43153 -38.43144  -2.19577  -2.19524  -2.19508
  Beta  occ. eigenvalues --   -2.19434  -2.19431  -2.19340  -2.19273  -1.13503
  Beta  occ. eigenvalues --   -1.13454  -1.13404  -1.13308  -1.13285  -1.13230
  Beta  occ. eigenvalues --   -1.13207  -1.13170  -1.13128  -1.13115  -1.13087
  Beta  occ. eigenvalues --   -1.13030  -1.13028  -1.13016  -1.12990  -1.12974
  Beta  occ. eigenvalues --   -1.12930  -1.12899  -1.12860  -1.12857  -1.12854
  Beta  occ. eigenvalues --   -0.20068  -0.13220  -0.13046
  Beta virt. eigenvalues --   -0.07101  -0.04981  -0.04772  -0.04720  -0.02321
  Beta virt. eigenvalues --   -0.02157  -0.01077  -0.00930  -0.00894   0.00163
  Beta virt. eigenvalues --    0.00354   0.00364   0.00387   0.01056   0.01059

 Mulliken charges and spin densities:
               1          2
     1  Na  -0.991392   0.390780
     2  Na   0.388207  -0.003348
     3  Na  -0.821183   0.548181
     4  Na   0.385554  -0.004216
     5  Na   0.370440   0.005792
     6  Na   0.293212   0.055727
     7  Na   0.375163   0.007084
 Sum of Mulliken charges =  -0.00000   1.00000

 Dipole moment (field-independent basis, Debye):
    X=             -0.0156    Y=              0.0032    Z=              0.1306  Tot=              0.1315
 Quadrupole moment (field-independent basis, Debye-Ang):
   XX=            -60.4899   YY=            -61.2781   ZZ=            -73.1456
   XY=              0.0068   XZ=              1.8339   YZ=             -0.0267

 Normal termination of Gaussian 16 at Mon Nov 13 16:49:10 2023.
