 Gaussian 16, Revision B.01,
 Gaussian 16:  ES64L-G16RevB.01 20-Dec-2017

 -------------------------
 #P B3LYP/6-311+g(d) force
 -------------------------

 ------------------------------
 Gaussian input prepared by ASE
 ------------------------------
 Symbolic Z-matrix:
 Charge =  0 Multiplicity = 2

                         Standard orientation:
 ---------------------------------------------------------------------
 Center     Atomic      Atomic             Coordinates (Angstroms)
 Number     Number       Type             X           Y           Z
 ---------------------------------------------------------------------
      1         11           0       -2.076464    1.496971    0.347314
      2         11           0       -0.091986    0.106195   -1.626151
      3         11           0        0.815953    2.373614   -0.146783
      4         11           0        2.717462   -0.001316    0.002667
      5         11           0       -0.093799   -0.109618    1.627855
      6         11           0        0.811187   -2.376102    0.141740
      7         11           0       -2.082353   -1.489745   -0.346644
 ---------------------------------------------------------------------

 SCF Done:  E(UB3LYP) =  -1136.10831734     A.U. after   17 cycles

 The electronic state is 2-A.
 Alpha  occ. eigenvalues --  -38.43500 -38.43450 -38.43448 -38.43416 -38.43415
 Alpha  occ. eigenvalues --  -38.43306 -38.43304  -2.19654  -2.19642  -2.19511
 Alpha  occ. eigenvalues --   -2.19500  -2.19492  -2.19355  -2.19351  -1.13585
 Alpha  occ. eigenvalues --   -1.13538  -1.13501  -1.13359  -1.13324  -1.13277
 Alpha  occ. eigenvalues --   -1.13239  -1.13225  -1.13152  -1.13129  -1.13122
 Alpha  occ. eigenvalues --   -1.13118  -1.13083  -1.13073  -1.13056  -1.12973
 Alpha  occ. eigenvalues --   -1.12969  -1.12951  -1.12946  -1.12923  -1.12892
 Alpha  occ. eigenvalues --   -0.20951  -0.13540  -0.13251  -0.11519
 Alpha virt. eigenvalues --   -0.04981  -0.04575  -0.04536  -0.03282  -0.03146
 Alpha virt. eigenvalues --   -0.02443  -0.01049  -0.00814   0.00003   0.00346
 Alpha virt. eigenvalues --    0.00519   0.00560   0.01021   0.01077   0.01093

  Beta  occ. eigenvalues --  -38.43494 -38.43434 -38.43432 -38.43331 -38.43330
  Beta  occ. eigenvalues --  -38.43295 -38.43293  -2.19521  -2.19497  -2.19486
  Beta  occ. eigenvalues --   -2.19470  -2.19468  -2.19339  -2.19335  -1.13524
  Beta  occ. eigenvalues --   -1.13459  -1.13420  -1.13277  -1.13254  -1.13236
  Beta  occ. eigenvalues --   -1.13232  -1.13182  -1.13113  -1.13090  -1.13066
  Beta  occ. eigenvalues --   -1.13059  -1.13042  -1.13023  -1.12997  -1.12949
  Beta  occ. eigenvalues --   -1.12936  -1.12919  -1.12900  -1.12882  -1.12878
  Beta  occ. eigenvalues --   -0.20192  -0.13203  -0.12904
  Beta virt. eigenvalues --   -0.07399  -0.05007  -0.04561  -0.04533  -0.02380
  Beta virt. eigenvalues --   -0.02243  -0.01344  -0.00980  -0.00757   0.00126
  Beta virt. eigenvalues --    0.00365   0.00477   0.00511   0.01050   0.01078

 Mulliken charges and spin densities:
               1          2
     1  Na   0.388051   0.028779
     2  Na  -0.756971   0.495228
     3  Na   0.359174   0.003223
     4  Na   0.016988  -0.054201
     5  Na  -0.754817   0.497170
     6  Na   0.358189   0.002016
     7  Na   0.389386   0.027785
 Sum of Mulliken charges =  -0.00000   1.00000

 Dipole moment (field-independent basis, Debye):
    X=              0.1116    Y=             -0.0015    Z=              0.0024  Tot=              0.1116
 Quadrupole moment (field-independent basis, Debye-Ang):
   XX=            -59.9114   YY=            -63.5449   ZZ=            -72.0141
   XY=             -0.0023   XZ=              0.0056   YZ=              0.5100

 Normal termination of Gaussian 16 at Mon Nov 13 19:04:49 2023.
