 Gaussian 16, Revision B.01,
 Gaussian 16:  ES64L-G16RevB.01 20-Dec-2017

 -------------------------
 #P B3LYP/6-311+g(d) force
 -------------------------

 ------------------------------
 Gaussian input prepared by ASE
 ------------------------------
 Symbolic Z-matrix:
 Charge =  0 Multiplicity = 2

                         Standard orientation:
 ---------------------------------------------------------------------
 Center     Atomic      Atomic             Coordinates (Angstroms)
 Number     Number       Type             X           Y           Z
 ---------------------------------------------------------------------
      1         11           0       -1.183622    2.004143   -0.460985
      2         11           0        3.171856   -1.397897   -0.268730
      3         11           0        2.966834    1.445998    0.283461
      4         11           0        0.560924   -0.108151   -0.247458
      5         11           0       -1.888028    0.375930    1.631951
      6         11           0       -2.348009   -0.296755   -1.390221
      7         11           0       -1.279954   -2.023267    0.451981
 ---------------------------------------------------------------------

 SCF Done:  E(UB3LYP) =  -1136.06860016     A.U. after   24 cycles

 The electronic state is 2-A.
 Alpha  occ. eigenvalues --  -38.45096 -38.45089 -38.44500 -38.44307 -38.43736
 Alpha  occ. eigenvalues --  -38.43476 -38.43354  -2.21012  -2.20983  -2.20653
 Alpha  occ. eigenvalues --   -2.20463  -2.20106  -2.19587  -2.19467  -1.14900
 Alpha  occ. eigenvalues --   -1.14706  -1.14678  -1.14639  -1.14595  -1.14499
 Alpha  occ. eigenvalues --   -1.14495  -1.14407  -1.14269  -1.14219  -1.14192
 Alpha  occ. eigenvalues --   -1.14030  -1.13900  -1.13858  -1.13706  -1.13199
 Alpha  occ. eigenvalues --   -1.13177  -1.13142  -1.13100  -1.13057  -1.13022
 Alpha  occ. eigenvalues --   -0.20428  -0.15115  -0.11729  -0.11091
 Alpha virt. eigenvalues --   -0.06691  -0.05620  -0.03547  -0.03387  -0.02338
 Alpha virt. eigenvalues --   -0.02192  -0.01850  -0.01007  -0.00387  -0.00031
 Alpha virt. eigenvalues --    0.00207   0.00314   0.00749   0.00823   0.00849

  Beta  occ. eigenvalues --  -38.45098 -38.45092 -38.44428 -38.44224 -38.43711
  Beta  occ. eigenvalues --  -38.43450 -38.43329  -2.21017  -2.20988  -2.20525
  Beta  occ. eigenvalues --   -2.20312  -2.20069  -2.19548  -2.19429  -1.14903
  Beta  occ. eigenvalues --   -1.14709  -1.14681  -1.14638  -1.14594  -1.14500
  Beta  occ. eigenvalues --   -1.14432  -1.14308  -1.14164  -1.14109  -1.14094
  Beta  occ. eigenvalues --   -1.13922  -1.13885  -1.13830  -1.13600  -1.13180
  Beta  occ. eigenvalues --   -1.13131  -1.13081  -1.13073  -1.13009  -1.12954
  Beta  occ. eigenvalues --   -0.19630  -0.15004  -0.11387
  Beta virt. eigenvalues --   -0.06815  -0.06451  -0.05563  -0.03374  -0.03131
  Beta virt. eigenvalues --   -0.02165  -0.01417  -0.00957  -0.00880  -0.00049
  Beta virt. eigenvalues --    0.00065   0.00231   0.00398   0.00828   0.00865

 Mulliken charges and spin densities:
               1          2
     1  Na   0.119723   0.115029
     2  Na   0.342560  -0.241794
     3  Na   0.530775  -0.168918
     4  Na  -1.099306   0.939458
     5  Na  -0.079132   0.214874
     6  Na  -0.014339   0.036517
     7  Na   0.199719   0.104835
 Sum of Mulliken charges =  -0.00000   1.00000

 Dipole moment (field-independent basis, Debye):
    X=              1.5347    Y=              0.0512    Z=              0.1710  Tot=              1.5451
 Quadrupole moment (field-independent basis, Debye-Ang):
   XX=            -49.2695   YY=            -70.7025   ZZ=            -72.8107
   XY=             -0.0611   XZ=              0.7205   YZ=              1.2859

 Normal termination of Gaussian 16 at Mon Nov 13 20:29:47 2023.
