 Gaussian 16, Revision B.01,
 Gaussian 16:  ES64L-G16RevB.01 20-Dec-2017

 -------------------------
 #P B3LYP/6-311+g(d) force
 -------------------------

 ------------------------------
 Gaussian input prepared by ASE
 ------------------------------
 Symbolic Z-matrix:
 Charge =  0 Multiplicity = 2

                         Standard orientation:
 ---------------------------------------------------------------------
 Center     Atomic      Atomic             Coordinates (Angstroms)
 Number     Number       Type             X           Y           Z
 ---------------------------------------------------------------------
      1         11           0        0.617713   -0.660481    1.505193
      2         11           0       -2.053745    1.042664   -0.745927
      3         11           0       -1.959759   -1.015145    0.848498
      4         11           0        0.332058    0.572424   -1.528103
      5         11           0        0.208763   -1.982154   -0.845753
      6         11           0        2.535673    0.059291   -0.162201
      7         11           0        0.319297    1.983401    0.928293
 ---------------------------------------------------------------------

 SCF Done:  E(UB3LYP) =  -1136.04983473     A.U. after   21 cycles

 The electronic state is 2-A.
 Alpha  occ. eigenvalues --  -38.45047 -38.44800 -38.44520 -38.44352 -38.44209
 Alpha  occ. eigenvalues --  -38.43625 -38.43448  -2.21480  -2.21191  -2.20675
 Alpha  occ. eigenvalues --   -2.20492  -2.20360  -2.19816  -2.19592  -1.15523
 Alpha  occ. eigenvalues --   -1.15273  -1.15147  -1.15112  -1.14936  -1.14870
 Alpha  occ. eigenvalues --   -1.14704  -1.14269  -1.14211  -1.14139  -1.14064
 Alpha  occ. eigenvalues --   -1.13974  -1.13935  -1.13869  -1.13862  -1.13506
 Alpha  occ. eigenvalues --   -1.13442  -1.13321  -1.13308  -1.13231  -1.13127
 Alpha  occ. eigenvalues --   -0.22093  -0.13903  -0.13054  -0.12691
 Alpha virt. eigenvalues --   -0.05172  -0.04067  -0.03948  -0.03831  -0.03327
 Alpha virt. eigenvalues --   -0.03207  -0.00919  -0.00367  -0.00184   0.00326
 Alpha virt. eigenvalues --    0.00908   0.01054   0.01085   0.01232   0.01314

  Beta  occ. eigenvalues --  -38.44961 -38.44721 -38.44498 -38.44326 -38.44197
  Beta  occ. eigenvalues --  -38.43595 -38.43417  -2.21327  -2.21052  -2.20641
  Beta  occ. eigenvalues --   -2.20451  -2.20343  -2.19767  -2.19541  -1.15415
  Beta  occ. eigenvalues --   -1.15191  -1.15031  -1.15005  -1.14850  -1.14758
  Beta  occ. eigenvalues --   -1.14676  -1.14225  -1.14170  -1.14104  -1.14018
  Beta  occ. eigenvalues --   -1.13939  -1.13882  -1.13856  -1.13834  -1.13475
  Beta  occ. eigenvalues --   -1.13361  -1.13292  -1.13277  -1.13155  -1.13097
  Beta  occ. eigenvalues --   -0.21282  -0.13578  -0.12480
  Beta virt. eigenvalues --   -0.08561  -0.05161  -0.03861  -0.03752  -0.03085
  Beta virt. eigenvalues --   -0.02554  -0.02016  -0.00881  -0.00333  -0.00007
  Beta virt. eigenvalues --    0.00357   0.00926   0.01104   0.01122   0.01312

 Mulliken charges and spin densities:
               1          2
     1  Na  -0.720329   0.303048
     2  Na   0.202508  -0.012891
     3  Na   0.110475   0.029401
     4  Na  -0.630879   0.285952
     5  Na   0.458382   0.215507
     6  Na   0.336018  -0.054392
     7  Na   0.243824   0.233376
 Sum of Mulliken charges =  -0.00000   1.00000

 Dipole moment (field-independent basis, Debye):
    X=             -0.0467    Y=              0.0809    Z=              0.1191  Tot=              0.1514
 Quadrupole moment (field-independent basis, Debye-Ang):
   XX=            -61.8810   YY=            -71.3774   ZZ=            -65.7062
   XY=              0.0865   XZ=             -0.4113   YZ=              1.1870

 Normal termination of Gaussian 16 at Mon Nov 13 19:20:36 2023.
