 Gaussian 16, Revision B.01,
 Gaussian 16:  ES64L-G16RevB.01 20-Dec-2017

 -------------------------
 #P B3LYP/6-311+g(d) force
 -------------------------

 ------------------------------
 Gaussian input prepared by ASE
 ------------------------------
 Symbolic Z-matrix:
 Charge =  0 Multiplicity = 2

                         Standard orientation:
 ---------------------------------------------------------------------
 Center     Atomic      Atomic             Coordinates (Angstroms)
 Number     Number       Type             X           Y           Z
 ---------------------------------------------------------------------
      1         11           0        0.236960    2.311741   -0.228870
      2         11           0        0.673840    0.334522    1.983772
      3         11           0        2.845040    0.850626   -0.013221
      4         11           0        2.098697   -1.686892   -1.431928
      5         11           0       -0.210942   -2.088072    0.444901
      6         11           0       -3.073264   -1.235329    0.170153
      7         11           0       -2.570331    1.513404   -0.924806
 ---------------------------------------------------------------------

 SCF Done:  E(UB3LYP) =  -1136.10812597     A.U. after   21 cycles

 The electronic state is 2-A.
 Alpha  occ. eigenvalues --  -38.44706 -38.44628 -38.44335 -38.44165 -38.44071
 Alpha  occ. eigenvalues --  -38.43515 -38.43386  -2.20610  -2.20576  -2.20350
 Alpha  occ. eigenvalues --   -2.20074  -2.19957  -2.19478  -2.19357  -1.14359
 Alpha  occ. eigenvalues --   -1.14301  -1.14289  -1.14273  -1.14265  -1.14205
 Alpha  occ. eigenvalues --   -1.14023  -1.13996  -1.13933  -1.13761  -1.13706
 Alpha  occ. eigenvalues --   -1.13683  -1.13676  -1.13589  -1.13581  -1.13150
 Alpha  occ. eigenvalues --   -1.13122  -1.13104  -1.13039  -1.13003  -1.12985
 Alpha  occ. eigenvalues --   -0.19137  -0.14194  -0.12665  -0.11247
 Alpha virt. eigenvalues --   -0.06352  -0.05389  -0.04088  -0.03866  -0.03347
 Alpha virt. eigenvalues --   -0.02279  -0.01700  -0.00738  -0.00249  -0.00136
 Alpha virt. eigenvalues --    0.00051   0.00283   0.00590   0.00785   0.00893

  Beta  occ. eigenvalues --  -38.44707 -38.44610 -38.44240 -38.44107 -38.44046
  Beta  occ. eigenvalues --  -38.43508 -38.43368  -2.20584  -2.20581  -2.20177
  Beta  occ. eigenvalues --   -2.19965  -2.19910  -2.19470  -2.19329  -1.14324
  Beta  occ. eigenvalues --   -1.14283  -1.14270  -1.14262  -1.14240  -1.14203
  Beta  occ. eigenvalues --   -1.13911  -1.13872  -1.13823  -1.13689  -1.13645
  Beta  occ. eigenvalues --   -1.13634  -1.13607  -1.13560  -1.13546  -1.13134
  Beta  occ. eigenvalues --   -1.13120  -1.13075  -1.13001  -1.12980  -1.12956
  Beta  occ. eigenvalues --   -0.18486  -0.13820  -0.12368
  Beta virt. eigenvalues --   -0.07517  -0.06209  -0.05100  -0.03966  -0.03198
  Beta virt. eigenvalues --   -0.02601  -0.01751  -0.01431  -0.00638  -0.00157
  Beta virt. eigenvalues --    0.00057   0.00103   0.00367   0.00801   0.00823

 Mulliken charges and spin densities:
               1          2
     1  Na  -0.307899   0.287868
     2  Na   0.289998  -0.198002
     3  Na   0.237953   0.475008
     4  Na   0.381191  -0.140018
     5  Na  -0.859195   0.613644
     6  Na   0.318620  -0.091390
     7  Na  -0.060667   0.052890
 Sum of Mulliken charges =  -0.00000   1.00000

 Dipole moment (field-independent basis, Debye):
    X=             -0.0733    Y=             -0.0425    Z=              0.0003  Tot=              0.0847
 Quadrupole moment (field-independent basis, Debye-Ang):
   XX=            -57.4452   YY=            -71.6053   ZZ=            -70.3007
   XY=              2.9379   XZ=             -0.1245   YZ=              0.0594

 Normal termination of Gaussian 16 at Mon Nov 13 15:48:46 2023.
