 Gaussian 16, Revision B.01,
 Gaussian 16:  ES64L-G16RevB.01 20-Dec-2017

 -------------------------
 #P B3LYP/6-311+g(d) force
 -------------------------

 ------------------------------
 Gaussian input prepared by ASE
 ------------------------------
 Symbolic Z-matrix:
 Charge =  0 Multiplicity = 2

                         Standard orientation:
 ---------------------------------------------------------------------
 Center     Atomic      Atomic             Coordinates (Angstroms)
 Number     Number       Type             X           Y           Z
 ---------------------------------------------------------------------
      1         11           0        0.001281   -0.001157    1.318746
      2         11           0        1.048793   -1.071101   -1.277411
      3         11           0        2.918677   -0.642094    1.030384
      4         11           0        1.752017    1.712035   -0.412817
      5         11           0       -1.051427    1.073420   -1.276970
      6         11           0       -1.750616   -1.711931   -0.414960
      7         11           0       -2.918724    0.640827    1.033027
 ---------------------------------------------------------------------

 SCF Done:  E(UB3LYP) =  -1136.09086469     A.U. after   26 cycles

 The electronic state is 2-A.
 Alpha  occ. eigenvalues --  -38.44722 -38.44721 -38.43805 -38.43272 -38.43272
 Alpha  occ. eigenvalues --  -38.43060 -38.43059  -2.20709  -2.20706  -2.20076
 Alpha  occ. eigenvalues --   -2.19462  -2.19441  -2.19133  -2.19129  -1.14470
 Alpha  occ. eigenvalues --   -1.14425  -1.14372  -1.14366  -1.14313  -1.14311
 Alpha  occ. eigenvalues --   -1.13889  -1.13745  -1.13655  -1.13327  -1.13187
 Alpha  occ. eigenvalues --   -1.13107  -1.13106  -1.13068  -1.12992  -1.12821
 Alpha  occ. eigenvalues --   -1.12785  -1.12773  -1.12743  -1.12727  -1.12699
 Alpha  occ. eigenvalues --   -0.20925  -0.14971  -0.12239  -0.11199
 Alpha virt. eigenvalues --   -0.06242  -0.04725  -0.04341  -0.03194  -0.02350
 Alpha virt. eigenvalues --   -0.02210  -0.01994  -0.00555  -0.00447   0.00274
 Alpha virt. eigenvalues --    0.00438   0.00605   0.00790   0.00927   0.00981

  Beta  occ. eigenvalues --  -38.44688 -38.44687 -38.43756 -38.43218 -38.43218
  Beta  occ. eigenvalues --  -38.43044 -38.43043  -2.20647  -2.20643  -2.19991
  Beta  occ. eigenvalues --   -2.19371  -2.19350  -2.19112  -2.19108  -1.14424
  Beta  occ. eigenvalues --   -1.14388  -1.14322  -1.14310  -1.14272  -1.14270
  Beta  occ. eigenvalues --   -1.13816  -1.13681  -1.13601  -1.13241  -1.13127
  Beta  occ. eigenvalues --   -1.13058  -1.13045  -1.12987  -1.12883  -1.12808
  Beta  occ. eigenvalues --   -1.12767  -1.12724  -1.12709  -1.12688  -1.12675
  Beta  occ. eigenvalues --   -0.20101  -0.14635  -0.10945
  Beta virt. eigenvalues --   -0.08010  -0.06102  -0.04335  -0.03942  -0.02823
  Beta virt. eigenvalues --   -0.01902  -0.01615  -0.01415  -0.00422  -0.00220
  Beta virt. eigenvalues --    0.00309   0.00536   0.00721   0.00789   0.00977

 Mulliken charges and spin densities:
               1          2
     1  Na  -1.269390   0.324655
     2  Na   0.035364   0.178141
     3  Na   1.123901   0.008754
     4  Na  -0.521367   0.151913
     5  Na   0.032998   0.175733
     6  Na  -0.521540   0.152303
     7  Na   1.120033   0.008501
 Sum of Mulliken charges =  -0.00000   1.00000

 Dipole moment (field-independent basis, Debye):
    X=             -0.0006    Y=              0.0009    Z=              0.4565  Tot=              0.4565
 Quadrupole moment (field-independent basis, Debye-Ang):
   XX=            -49.4775   YY=            -77.7681   ZZ=            -66.5313
   XY=             -0.5730   XZ=             -0.0024   YZ=             -0.0108

 Normal termination of Gaussian 16 at Mon Nov 13 18:19:15 2023.
