 Gaussian 16, Revision B.01,
 Gaussian 16:  ES64L-G16RevB.01 20-Dec-2017

 -------------------------
 #P B3LYP/6-311+g(d) force
 -------------------------

 ------------------------------
 Gaussian input prepared by ASE
 ------------------------------
 Symbolic Z-matrix:
 Charge =  0 Multiplicity = 2

                         Standard orientation:
 ---------------------------------------------------------------------
 Center     Atomic      Atomic             Coordinates (Angstroms)
 Number     Number       Type             X           Y           Z
 ---------------------------------------------------------------------
      1         11           0        0.538745   -0.119782    2.060205
      2         11           0        2.421987    0.702376    0.187014
      3         11           0        1.418369   -2.165515   -0.077113
      4         11           0        0.864277    0.146244   -2.045840
      5         11           0       -0.181259    2.173920    0.076602
      6         11           0       -1.087459   -0.425240   -0.162725
      7         11           0       -3.974659   -0.312002   -0.038143
 ---------------------------------------------------------------------

 SCF Done:  E(UB3LYP) =  -1136.07778004     A.U. after   25 cycles

 The electronic state is 2-A.
 Alpha  occ. eigenvalues --  -38.45119 -38.45062 -38.44956 -38.44330 -38.43285
 Alpha  occ. eigenvalues --  -38.42632 -38.42485  -2.21201  -2.21098  -2.20911
 Alpha  occ. eigenvalues --   -2.20501  -2.19590  -2.18717  -2.18531  -1.15003
 Alpha  occ. eigenvalues --   -1.14938  -1.14894  -1.14845  -1.14736  -1.14640
 Alpha  occ. eigenvalues --   -1.14626  -1.14552  -1.14540  -1.14162  -1.14128
 Alpha  occ. eigenvalues --   -1.14053  -1.13330  -1.13278  -1.13185  -1.12428
 Alpha  occ. eigenvalues --   -1.12348  -1.12288  -1.12237  -1.12176  -1.12155
 Alpha  occ. eigenvalues --   -0.21072  -0.13302  -0.12683  -0.11904
 Alpha virt. eigenvalues --   -0.06694  -0.03885  -0.03536  -0.03393  -0.02909
 Alpha virt. eigenvalues --   -0.02748  -0.02005  -0.00473  -0.00398   0.00162
 Alpha virt. eigenvalues --    0.00388   0.00471   0.00584   0.00858   0.01135

  Beta  occ. eigenvalues --  -38.45137 -38.44953 -38.44850 -38.44302 -38.43257
  Beta  occ. eigenvalues --  -38.42620 -38.42473  -2.21005  -2.20944  -2.20907
  Beta  occ. eigenvalues --   -2.20458  -2.19546  -2.18702  -2.18517  -1.14887
  Beta  occ. eigenvalues --   -1.14792  -1.14779  -1.14710  -1.14656  -1.14590
  Beta  occ. eigenvalues --   -1.14572  -1.14564  -1.14485  -1.14108  -1.14045
  Beta  occ. eigenvalues --   -1.14033  -1.13315  -1.13170  -1.13166  -1.12424
  Beta  occ. eigenvalues --   -1.12287  -1.12280  -1.12236  -1.12148  -1.12116
  Beta  occ. eigenvalues --   -0.20117  -0.13159  -0.11542
  Beta virt. eigenvalues --   -0.08362  -0.06509  -0.03627  -0.03022  -0.02744
  Beta virt. eigenvalues --   -0.02334  -0.02001  -0.01920  -0.00427  -0.00160
  Beta virt. eigenvalues --    0.00204   0.00452   0.00568   0.00667   0.00905

 Mulliken charges and spin densities:
               1          2
     1  Na  -0.120553   0.433193
     2  Na   0.325575   0.099734
     3  Na  -0.131193   0.064560
     4  Na   0.018043   0.371540
     5  Na   0.176767   0.039946
     6  Na  -0.736400   0.206080
     7  Na   0.467762  -0.215053
 Sum of Mulliken charges =  -0.00000   1.00000

 Dipole moment (field-independent basis, Debye):
    X=             -0.3863    Y=              0.1526    Z=              0.0413  Tot=              0.4174
 Quadrupole moment (field-independent basis, Debye-Ang):
   XX=            -53.7754   YY=            -74.4836   ZZ=            -64.5702
   XY=             -0.5350   XZ=             -0.2927   YZ=              0.7828

 Normal termination of Gaussian 16 at Mon Nov 13 19:27:39 2023.
