 Gaussian 16, Revision B.01,
 Gaussian 16:  ES64L-G16RevB.01 20-Dec-2017

 -------------------------
 #P B3LYP/6-311+g(d) force
 -------------------------

 ------------------------------
 Gaussian input prepared by ASE
 ------------------------------
 Symbolic Z-matrix:
 Charge =  0 Multiplicity = 2

                         Standard orientation:
 ---------------------------------------------------------------------
 Center     Atomic      Atomic             Coordinates (Angstroms)
 Number     Number       Type             X           Y           Z
 ---------------------------------------------------------------------
      1         11           0       -0.528680   -0.332932   -1.473658
      2         11           0        1.606912    0.177805    1.454197
      3         11           0       -0.292886   -1.820209    0.700764
      4         11           0       -2.659920    0.006385   -0.154894
      5         11           0       -0.769227    1.009017    1.229485
      6         11           0        1.884454   -0.827141   -0.927497
      7         11           0        0.759347    1.787075   -0.828397
 ---------------------------------------------------------------------

 SCF Done:  E(UB3LYP) =  -1136.01327441     A.U. after   25 cycles

 The electronic state is 2-A.
 Alpha  occ. eigenvalues --  -38.45905 -38.45371 -38.45059 -38.44980 -38.44861
 Alpha  occ. eigenvalues --  -38.43815 -38.43120  -2.22475  -2.21712  -2.21481
 Alpha  occ. eigenvalues --   -2.21148  -2.21105  -2.20080  -2.19394  -1.16605
 Alpha  occ. eigenvalues --   -1.16260  -1.16126  -1.15998  -1.15625  -1.15412
 Alpha  occ. eigenvalues --   -1.15245  -1.15071  -1.14901  -1.14877  -1.14662
 Alpha  occ. eigenvalues --   -1.14644  -1.14604  -1.14583  -1.14483  -1.13783
 Alpha  occ. eigenvalues --   -1.13680  -1.13568  -1.13149  -1.13042  -1.12923
 Alpha  occ. eigenvalues --   -0.22739  -0.14152  -0.13673  -0.12465
 Alpha virt. eigenvalues --   -0.05413  -0.04255  -0.04167  -0.03613  -0.03247
 Alpha virt. eigenvalues --   -0.02862  -0.00917  -0.00339  -0.00190   0.00274
 Alpha virt. eigenvalues --    0.00908   0.01038   0.01105   0.01202   0.01327

  Beta  occ. eigenvalues --  -38.45815 -38.45303 -38.44994 -38.44974 -38.44821
  Beta  occ. eigenvalues --  -38.43786 -38.43095  -2.22318  -2.21595  -2.21373
  Beta  occ. eigenvalues --   -2.21094  -2.21080  -2.20034  -2.19358  -1.16478
  Beta  occ. eigenvalues --   -1.16170  -1.16009  -1.15891  -1.15558  -1.15345
  Beta  occ. eigenvalues --   -1.15155  -1.14993  -1.14834  -1.14805  -1.14613
  Beta  occ. eigenvalues --   -1.14606  -1.14571  -1.14531  -1.14435  -1.13750
  Beta  occ. eigenvalues --   -1.13595  -1.13544  -1.13134  -1.12952  -1.12905
  Beta  occ. eigenvalues --   -0.21909  -0.13902  -0.12179
  Beta virt. eigenvalues --   -0.09029  -0.05362  -0.03602  -0.03428  -0.03385
  Beta virt. eigenvalues --   -0.02384  -0.02183  -0.00899  -0.00197  -0.00080
  Beta virt. eigenvalues --    0.00306   0.00968   0.01120   0.01154   0.01308

 Mulliken charges and spin densities:
               1          2
     1  Na  -0.977416   0.188978
     2  Na   0.285871   0.184702
     3  Na  -0.157455   0.272634
     4  Na   0.718209   0.019974
     5  Na  -0.495134   0.296967
     6  Na   0.270571  -0.105193
     7  Na   0.355355   0.141938
 Sum of Mulliken charges =  -0.00000   1.00000

 Dipole moment (field-independent basis, Debye):
    X=             -0.0491    Y=             -0.0255    Z=              0.1826  Tot=              0.1908
 Quadrupole moment (field-independent basis, Debye-Ang):
   XX=            -61.1234   YY=            -74.9036   ZZ=            -63.5754
   XY=              0.0596   XZ=             -0.0708   YZ=              0.0584

 Normal termination of Gaussian 16 at Mon Nov 13 20:48:30 2023.
