 Gaussian 16, Revision B.01,
 Gaussian 16:  ES64L-G16RevB.01 20-Dec-2017

 -------------------------
 #P B3LYP/6-311+g(d) force
 -------------------------

 ------------------------------
 Gaussian input prepared by ASE
 ------------------------------
 Symbolic Z-matrix:
 Charge =  0 Multiplicity = 2

                         Standard orientation:
 ---------------------------------------------------------------------
 Center     Atomic      Atomic             Coordinates (Angstroms)
 Number     Number       Type             X           Y           Z
 ---------------------------------------------------------------------
      1         11           0       -2.893722   -0.735628    0.303645
      2         11           0        2.887971    0.746355   -0.335392
      3         11           0        0.521154   -0.789495    2.868112
      4         11           0       -0.510181    0.770895   -2.827943
      5         11           0       -0.625232    2.806481    0.863634
      6         11           0        0.003156   -0.002641    0.020079
      7         11           0        0.616853   -2.795967   -0.892135
 ---------------------------------------------------------------------

 SCF Done:  E(UB3LYP) =  -1136.10582041     A.U. after   30 cycles

 The electronic state is 2-A.
 Alpha  occ. eigenvalues --  -38.44312 -38.44308 -38.44267 -38.44259 -38.44246
 Alpha  occ. eigenvalues --  -38.44235 -38.41539  -2.20129  -2.20126  -2.20083
 Alpha  occ. eigenvalues --   -2.20076  -2.20061  -2.20051  -2.17885  -1.13859
 Alpha  occ. eigenvalues --   -1.13845  -1.13812  -1.13796  -1.13789  -1.13771
 Alpha  occ. eigenvalues --   -1.13749  -1.13748  -1.13730  -1.13728  -1.13707
 Alpha  occ. eigenvalues --   -1.13698  -1.13686  -1.13686  -1.13678  -1.13674
 Alpha  occ. eigenvalues --   -1.13664  -1.13654  -1.11683  -1.11506  -1.11504
 Alpha  occ. eigenvalues --   -0.18383  -0.12536  -0.11400  -0.11393
 Alpha virt. eigenvalues --   -0.05377  -0.05361  -0.04186  -0.03038  -0.02683
 Alpha virt. eigenvalues --   -0.02669  -0.01440  -0.01121  -0.01120   0.00318
 Alpha virt. eigenvalues --    0.00321   0.00328   0.00437   0.00911   0.00916

  Beta  occ. eigenvalues --  -38.44279 -38.44277 -38.44237 -38.44229 -38.44216
  Beta  occ. eigenvalues --  -38.44206 -38.41507  -2.20072  -2.20068  -2.20029
  Beta  occ. eigenvalues --   -2.20022  -2.20008  -2.19998  -2.17841  -1.13816
  Beta  occ. eigenvalues --   -1.13802  -1.13771  -1.13755  -1.13750  -1.13731
  Beta  occ. eigenvalues --   -1.13703  -1.13702  -1.13692  -1.13691  -1.13662
  Beta  occ. eigenvalues --   -1.13654  -1.13651  -1.13644  -1.13640  -1.13631
  Beta  occ. eigenvalues --   -1.13630  -1.13620  -1.11535  -1.11494  -1.11492
  Beta  occ. eigenvalues --   -0.17389  -0.11217  -0.11212
  Beta virt. eigenvalues --   -0.08575  -0.04927  -0.04923  -0.03945  -0.02428
  Beta virt. eigenvalues --   -0.02425  -0.02203  -0.01074  -0.01072  -0.00853
  Beta virt. eigenvalues --    0.00380   0.00380   0.00454   0.00490   0.00964

 Mulliken charges and spin densities:
               1          2
     1  Na  -0.344466   0.085581
     2  Na  -0.349664   0.106658
     3  Na  -0.353876   0.104629
     4  Na  -0.339428   0.100967
     5  Na  -0.343958   0.089066
     6  Na   2.082825   0.405512
     7  Na  -0.351433   0.107586
 Sum of Mulliken charges =  -0.00000   1.00000

 Dipole moment (field-independent basis, Debye):
    X=             -0.0033    Y=              0.0034    Z=             -0.0203  Tot=              0.0208
 Quadrupole moment (field-independent basis, Debye-Ang):
   XX=            -63.3413   YY=            -67.0510   ZZ=            -58.9476
   XY=             -1.9928   XZ=             -6.3890   YZ=              2.7362

 Normal termination of Gaussian 16 at Mon Nov 13 20:38:15 2023.
