 Gaussian 16, Revision B.01,
 Gaussian 16:  ES64L-G16RevB.01 20-Dec-2017

 -------------------------
 #P B3LYP/6-311+g(d) force
 -------------------------

 ------------------------------
 Gaussian input prepared by ASE
 ------------------------------
 Symbolic Z-matrix:
 Charge =  0 Multiplicity = 2

                         Standard orientation:
 ---------------------------------------------------------------------
 Center     Atomic      Atomic             Coordinates (Angstroms)
 Number     Number       Type             X           Y           Z
 ---------------------------------------------------------------------
      1         11           0        0.259575   -0.125865   -1.315324
      2         11           0       -0.628265   -0.891583    1.469181
      3         11           0        1.947650   -1.727131    0.416269
      4         11           0        2.782056    0.934327   -0.371437
      5         11           0        0.186102    1.907840    0.477411
      6         11           0       -2.410097    1.195943    0.170703
      7         11           0       -2.137021   -1.293531   -0.846803
 ---------------------------------------------------------------------

 SCF Done:  E(UB3LYP) =  -1136.07204266     A.U. after   20 cycles

 The electronic state is 2-A.
 Alpha  occ. eigenvalues --  -38.44664 -38.44576 -38.44471 -38.43959 -38.43904
 Alpha  occ. eigenvalues --  -38.43545 -38.43291  -2.20795  -2.20602  -2.20587
 Alpha  occ. eigenvalues --   -2.20337  -2.19933  -2.19762  -2.19459  -1.14800
 Alpha  occ. eigenvalues --   -1.14637  -1.14464  -1.14411  -1.14392  -1.14289
 Alpha  occ. eigenvalues --   -1.14230  -1.14171  -1.14102  -1.14056  -1.13990
 Alpha  occ. eigenvalues --   -1.13855  -1.13691  -1.13551  -1.13511  -1.13439
 Alpha  occ. eigenvalues --   -1.13366  -1.13293  -1.13096  -1.13068  -1.13007
 Alpha  occ. eigenvalues --   -0.21295  -0.14848  -0.12240  -0.11622
 Alpha virt. eigenvalues --   -0.06163  -0.04872  -0.04015  -0.03578  -0.02530
 Alpha virt. eigenvalues --   -0.02114  -0.01817  -0.00651  -0.00080   0.00270
 Alpha virt. eigenvalues --    0.00462   0.00611   0.00902   0.00960   0.01065

  Beta  occ. eigenvalues --  -38.44627 -38.44567 -38.44456 -38.43894 -38.43890
  Beta  occ. eigenvalues --  -38.43474 -38.43267  -2.20733  -2.20588  -2.20566
  Beta  occ. eigenvalues --   -2.20223  -2.19913  -2.19637  -2.19423  -1.14763
  Beta  occ. eigenvalues --   -1.14586  -1.14420  -1.14381  -1.14349  -1.14284
  Beta  occ. eigenvalues --   -1.14197  -1.14123  -1.14034  -1.14022  -1.13928
  Beta  occ. eigenvalues --   -1.13781  -1.13637  -1.13527  -1.13487  -1.13361
  Beta  occ. eigenvalues --   -1.13271  -1.13206  -1.13070  -1.13045  -1.12929
  Beta  occ. eigenvalues --   -0.20506  -0.14519  -0.11962
  Beta virt. eigenvalues --   -0.07401  -0.06090  -0.04871  -0.03532  -0.03068
  Beta virt. eigenvalues --   -0.01869  -0.01659  -0.01075  -0.00601   0.00118
  Beta virt. eigenvalues --    0.00323   0.00451   0.00598   0.00940   0.00970

 Mulliken charges and spin densities:
               1          2
     1  Na  -1.163357   0.003369
     2  Na  -0.369815   0.257137
     3  Na  -0.013931   0.143064
     4  Na   0.554028   0.085970
     5  Na   0.098522   0.176594
     6  Na   0.213623   0.184040
     7  Na   0.680930   0.149826
 Sum of Mulliken charges =  -0.00000   1.00000

 Dipole moment (field-independent basis, Debye):
    X=              0.2517    Y=             -0.1747    Z=              0.2214  Tot=              0.3781
 Quadrupole moment (field-independent basis, Debye-Ang):
   XX=            -51.6234   YY=            -72.0803   ZZ=            -71.8977
   XY=             -0.1740   XZ=              0.4993   YZ=              0.4924

 Normal termination of Gaussian 16 at Mon Nov 13 18:09:50 2023.
