 Gaussian 16, Revision B.01,
 Gaussian 16:  ES64L-G16RevB.01 20-Dec-2017

 -------------------------
 #P B3LYP/6-311+g(d) force
 -------------------------

 ------------------------------
 Gaussian input prepared by ASE
 ------------------------------
 Symbolic Z-matrix:
 Charge =  0 Multiplicity = 2

                         Standard orientation:
 ---------------------------------------------------------------------
 Center     Atomic      Atomic             Coordinates (Angstroms)
 Number     Number       Type             X           Y           Z
 ---------------------------------------------------------------------
      1         11           0        0.927088   -0.309574    1.846444
      2         11           0        0.787230    1.650022   -1.612395
      3         11           0        2.897408   -0.124218   -0.414153
      4         11           0        1.030315   -2.462150   -0.227616
      5         11           0       -0.476518    2.218838    1.047632
      6         11           0       -1.091484   -0.342538   -0.374114
      7         11           0       -4.074039   -0.630381   -0.265798
 ---------------------------------------------------------------------

 SCF Done:  E(UB3LYP) =  -1136.09921373     A.U. after   21 cycles

 The electronic state is 2-A.
 Alpha  occ. eigenvalues --  -38.44842 -38.44669 -38.44052 -38.43627 -38.43582
 Alpha  occ. eigenvalues --  -38.43545 -38.42844  -2.20662  -2.20622  -2.20162
 Alpha  occ. eigenvalues --   -2.19633  -2.19561  -2.19538  -2.19010  -1.14383
 Alpha  occ. eigenvalues --   -1.14349  -1.14319  -1.14299  -1.14268  -1.14259
 Alpha  occ. eigenvalues --   -1.13895  -1.13820  -1.13763  -1.13409  -1.13302
 Alpha  occ. eigenvalues --   -1.13284  -1.13266  -1.13242  -1.13186  -1.13177
 Alpha  occ. eigenvalues --   -1.13147  -1.13074  -1.12695  -1.12644  -1.12613
 Alpha  occ. eigenvalues --   -0.20059  -0.13264  -0.12227  -0.11735
 Alpha virt. eigenvalues --   -0.06750  -0.04431  -0.03613  -0.03445  -0.02956
 Alpha virt. eigenvalues --   -0.02535  -0.02154  -0.00675  -0.00339   0.00104
 Alpha virt. eigenvalues --    0.00126   0.00360   0.00539   0.00792   0.01056

  Beta  occ. eigenvalues --  -38.44847 -38.44643 -38.43961 -38.43574 -38.43573
  Beta  occ. eigenvalues --  -38.43509 -38.42822  -2.20631  -2.20620  -2.19998
  Beta  occ. eigenvalues --   -2.19548  -2.19536  -2.19477  -2.18977  -1.14354
  Beta  occ. eigenvalues --   -1.14324  -1.14281  -1.14273  -1.14273  -1.14266
  Beta  occ. eigenvalues --   -1.13789  -1.13689  -1.13657  -1.13361  -1.13275
  Beta  occ. eigenvalues --   -1.13226  -1.13199  -1.13186  -1.13169  -1.13146
  Beta  occ. eigenvalues --   -1.13084  -1.13024  -1.12651  -1.12599  -1.12595
  Beta  occ. eigenvalues --   -0.19245  -0.13047  -0.11989
  Beta virt. eigenvalues --   -0.07610  -0.06521  -0.04377  -0.03352  -0.02755
  Beta virt. eigenvalues --   -0.02439  -0.02047  -0.01515  -0.00618  -0.00090
  Beta virt. eigenvalues --    0.00129   0.00169   0.00410   0.00672   0.00831

 Mulliken charges and spin densities:
               1          2
     1  Na  -0.224401   0.365152
     2  Na   0.201850   0.226122
     3  Na   0.573507   0.053150
     4  Na   0.514293   0.044312
     5  Na   0.356738  -0.032343
     6  Na  -1.131929   0.493451
     7  Na  -0.290058  -0.149843
 Sum of Mulliken charges =  -0.00000   1.00000

 Dipole moment (field-independent basis, Debye):
    X=              0.0741    Y=              0.1983    Z=              0.1001  Tot=              0.2341
 Quadrupole moment (field-independent basis, Debye-Ang):
   XX=            -54.3351   YY=            -69.2316   ZZ=            -69.2716
   XY=             -0.9392   XZ=             -1.2039   YZ=              1.4426

 Normal termination of Gaussian 16 at Mon Nov 13 19:01:34 2023.
