 Gaussian 16, Revision B.01,
 Gaussian 16:  ES64L-G16RevB.01 20-Dec-2017

 -------------------------
 #P B3LYP/6-311+g(d) force
 -------------------------

 ------------------------------
 Gaussian input prepared by ASE
 ------------------------------
 Symbolic Z-matrix:
 Charge =  0 Multiplicity = 2

                         Standard orientation:
 ---------------------------------------------------------------------
 Center     Atomic      Atomic             Coordinates (Angstroms)
 Number     Number       Type             X           Y           Z
 ---------------------------------------------------------------------
      1         11           0       -0.841082    3.668697   -0.160684
      2         11           0        3.346843   -3.224342    0.457381
      3         11           0        3.157267   -0.474277   -0.722928
      4         11           0        1.727315    2.118395   -0.243268
      5         11           0       -0.616607    1.060820    1.301438
      6         11           0       -2.028470   -0.947734   -0.426791
      7         11           0       -4.745266   -2.201558   -0.205149
 ---------------------------------------------------------------------

 SCF Done:  E(UB3LYP) =  -1136.09687308     A.U. after   23 cycles

 The electronic state is 2-A.
 Alpha  occ. eigenvalues --  -38.45554 -38.45384 -38.44431 -38.43980 -38.43972
 Alpha  occ. eigenvalues --  -38.43666 -38.42986  -2.21441  -2.21356  -2.20244
 Alpha  occ. eigenvalues --   -2.19839  -2.19802  -2.19688  -2.18891  -1.15207
 Alpha  occ. eigenvalues --   -1.15121  -1.15079  -1.15039  -1.15014  -1.14904
 Alpha  occ. eigenvalues --   -1.13950  -1.13882  -1.13878  -1.13539  -1.13493
 Alpha  occ. eigenvalues --   -1.13468  -1.13456  -1.13434  -1.13427  -1.13377
 Alpha  occ. eigenvalues --   -1.13340  -1.13305  -1.12585  -1.12532  -1.12522
 Alpha  occ. eigenvalues --   -0.17916  -0.13728  -0.13136  -0.10084
 Alpha virt. eigenvalues --   -0.07540  -0.05560  -0.04209  -0.03183  -0.02888
 Alpha virt. eigenvalues --   -0.02510  -0.02307  -0.01285  -0.01066  -0.00679
 Alpha virt. eigenvalues --   -0.00140   0.00018   0.00143   0.00323   0.00569

  Beta  occ. eigenvalues --  -38.45554 -38.45350 -38.44392 -38.43977 -38.43925
  Beta  occ. eigenvalues --  -38.43595 -38.42962  -2.21444  -2.21294  -2.20169
  Beta  occ. eigenvalues --   -2.19851  -2.19698  -2.19560  -2.18857  -1.15200
  Beta  occ. eigenvalues --   -1.15101  -1.15079  -1.15005  -1.14964  -1.14871
  Beta  occ. eigenvalues --   -1.13906  -1.13831  -1.13826  -1.13523  -1.13475
  Beta  occ. eigenvalues --   -1.13465  -1.13428  -1.13362  -1.13355  -1.13296
  Beta  occ. eigenvalues --   -1.13231  -1.13220  -1.12528  -1.12518  -1.12472
  Beta  occ. eigenvalues --   -0.17489  -0.13055  -0.12843
  Beta virt. eigenvalues --   -0.07229  -0.06672  -0.05383  -0.03752  -0.02997
  Beta virt. eigenvalues --   -0.02493  -0.02348  -0.02160  -0.01040  -0.00791
  Beta virt. eigenvalues --   -0.00313   0.00005   0.00218   0.00332   0.00541

 Mulliken charges and spin densities:
               1          2
     1  Na   0.945084   0.033959
     2  Na   0.102729   0.284295
     3  Na  -0.027090   0.017845
     4  Na   0.115656   0.345454
     5  Na  -0.564392   0.259579
     6  Na  -0.616932  -0.031113
     7  Na   0.044946   0.089982
 Sum of Mulliken charges =  -0.00000   1.00000

 Dipole moment (field-independent basis, Debye):
    X=             -1.9182    Y=              1.6090    Z=              0.3288  Tot=              2.5252
 Quadrupole moment (field-independent basis, Debye-Ang):
   XX=            -70.3411   YY=            -58.5305   ZZ=            -69.8603
   XY=             -2.5178   XZ=              1.7269   YZ=             -3.0071

 Normal termination of Gaussian 16 at Mon Nov 13 14:51:21 2023.
