 Gaussian 16, Revision B.01,
 Gaussian 16:  ES64L-G16RevB.01 20-Dec-2017

 -------------------------
 #P B3LYP/6-311+g(d) force
 -------------------------

 ------------------------------
 Gaussian input prepared by ASE
 ------------------------------
 Symbolic Z-matrix:
 Charge =  0 Multiplicity = 2

                         Standard orientation:
 ---------------------------------------------------------------------
 Center     Atomic      Atomic             Coordinates (Angstroms)
 Number     Number       Type             X           Y           Z
 ---------------------------------------------------------------------
      1         11           0       -0.920499    2.080099    1.794683
      2         11           0       -1.636268    2.621145   -1.066611
      3         11           0       -3.870896   -1.948701    0.591911
      4         11           0       -1.290849   -2.283290   -0.899117
      5         11           0        0.140040    0.305523   -0.378146
      6         11           0        3.080585    0.596138   -0.904854
      7         11           0        4.497886   -1.370914    0.862134
 ---------------------------------------------------------------------

 SCF Done:  E(UB3LYP) =  -1136.09859412     A.U. after   22 cycles

 The electronic state is 2-A.
 Alpha  occ. eigenvalues --  -38.45305 -38.44528 -38.44109 -38.44015 -38.43938
 Alpha  occ. eigenvalues --  -38.43606 -38.43505  -2.21180  -2.20431  -2.19932
 Alpha  occ. eigenvalues --   -2.19827  -2.19816  -2.19696  -2.19390  -1.14900
 Alpha  occ. eigenvalues --   -1.14849  -1.14806  -1.14145  -1.14054  -1.14027
 Alpha  occ. eigenvalues --   -1.13687  -1.13593  -1.13568  -1.13557  -1.13533
 Alpha  occ. eigenvalues --   -1.13475  -1.13458  -1.13448  -1.13404  -1.13392
 Alpha  occ. eigenvalues --   -1.13347  -1.13283  -1.13045  -1.13017  -1.13000
 Alpha  occ. eigenvalues --   -0.17718  -0.13541  -0.12720  -0.10114
 Alpha virt. eigenvalues --   -0.06684  -0.05739  -0.04012  -0.03547  -0.02811
 Alpha virt. eigenvalues --   -0.02240  -0.02060  -0.01738  -0.00643  -0.00346
 Alpha virt. eigenvalues --   -0.00101  -0.00082   0.00415   0.00542   0.00589

  Beta  occ. eigenvalues --  -38.45308 -38.44482 -38.44057 -38.43988 -38.43934
  Beta  occ. eigenvalues --  -38.43553 -38.43494  -2.21189  -2.20344  -2.19837
  Beta  occ. eigenvalues --   -2.19813  -2.19774  -2.19606  -2.19372  -1.14909
  Beta  occ. eigenvalues --   -1.14827  -1.14810  -1.14084  -1.13999  -1.13964
  Beta  occ. eigenvalues --   -1.13633  -1.13573  -1.13502  -1.13501  -1.13491
  Beta  occ. eigenvalues --   -1.13444  -1.13438  -1.13421  -1.13371  -1.13333
  Beta  occ. eigenvalues --   -1.13269  -1.13221  -1.13027  -1.13006  -1.12965
  Beta  occ. eigenvalues --   -0.17154  -0.13105  -0.12470
  Beta virt. eigenvalues --   -0.06804  -0.06404  -0.05211  -0.03815  -0.03115
  Beta virt. eigenvalues --   -0.02639  -0.01952  -0.01863  -0.01376  -0.00368
  Beta virt. eigenvalues --   -0.00223   0.00016   0.00177   0.00585   0.00662

 Mulliken charges and spin densities:
               1          2
     1  Na   0.811963   0.267553
     2  Na   1.672168  -0.109314
     3  Na   0.170884   0.173770
     4  Na   0.780333  -0.036752
     5  Na  -3.529550   0.445615
     6  Na   0.018579  -0.034831
     7  Na   0.075623   0.293958
 Sum of Mulliken charges =  -0.00000   1.00000

 Dipole moment (field-independent basis, Debye):
    X=             -0.8480    Y=              1.1124    Z=             -0.2011  Tot=              1.4132
 Quadrupole moment (field-independent basis, Debye-Ang):
   XX=            -65.4963   YY=            -67.1642   ZZ=            -66.2947
   XY=             -4.9579   XZ=              2.4196   YZ=             -5.6196

 Normal termination of Gaussian 16 at Mon Nov 13 15:18:20 2023.
