 Gaussian 16, Revision B.01,
 Gaussian 16:  ES64L-G16RevB.01 20-Dec-2017

 -------------------------
 #P B3LYP/6-311+g(d) force
 -------------------------

 ------------------------------
 Gaussian input prepared by ASE
 ------------------------------
 Symbolic Z-matrix:
 Charge =  0 Multiplicity = 2

                         Standard orientation:
 ---------------------------------------------------------------------
 Center     Atomic      Atomic             Coordinates (Angstroms)
 Number     Number       Type             X           Y           Z
 ---------------------------------------------------------------------
      1         11           0        1.768384    3.728652    0.617989
      2         11           0        1.650663    1.274225   -1.102370
      3         11           0        2.739911   -2.864745    1.283794
      4         11           0        1.461244   -1.717222   -1.175932
      5         11           0       -0.996443   -0.075671   -0.659146
      6         11           0       -3.963063   -0.512485   -0.788130
      7         11           0       -2.660696    0.167246    1.823796
 ---------------------------------------------------------------------

 SCF Done:  E(UB3LYP) =  -1136.09832086     A.U. after   21 cycles

 The electronic state is 2-A.
 Alpha  occ. eigenvalues --  -38.45827 -38.45551 -38.44087 -38.43778 -38.43286
 Alpha  occ. eigenvalues --  -38.43106 -38.43062  -2.21710  -2.21443  -2.20173
 Alpha  occ. eigenvalues --   -2.19608  -2.19104  -2.19083  -2.19044  -1.15436
 Alpha  occ. eigenvalues --   -1.15392  -1.15339  -1.15145  -1.15055  -1.15025
 Alpha  occ. eigenvalues --   -1.13879  -1.13843  -1.13807  -1.13301  -1.13236
 Alpha  occ. eigenvalues --   -1.13233  -1.12940  -1.12802  -1.12770  -1.12741
 Alpha  occ. eigenvalues --   -1.12727  -1.12713  -1.12682  -1.12654  -1.12578
 Alpha  occ. eigenvalues --   -0.18035  -0.14585  -0.12030  -0.10475
 Alpha virt. eigenvalues --   -0.06921  -0.05237  -0.04447  -0.03557  -0.02868
 Alpha virt. eigenvalues --   -0.02382  -0.01886  -0.01161  -0.00905  -0.00397
 Alpha virt. eigenvalues --   -0.00013   0.00131   0.00406   0.00553   0.00610

  Beta  occ. eigenvalues --  -38.45827 -38.45514 -38.44037 -38.43710 -38.43264
  Beta  occ. eigenvalues --  -38.43091 -38.43045  -2.21712  -2.21371  -2.20090
  Beta  occ. eigenvalues --   -2.19481  -2.19071  -2.19054  -2.19024  -1.15436
  Beta  occ. eigenvalues --   -1.15370  -1.15343  -1.15096  -1.15006  -1.14981
  Beta  occ. eigenvalues --   -1.13822  -1.13762  -1.13738  -1.13221  -1.13148
  Beta  occ. eigenvalues --   -1.13146  -1.12908  -1.12786  -1.12750  -1.12713
  Beta  occ. eigenvalues --   -1.12702  -1.12696  -1.12653  -1.12609  -1.12538
  Beta  occ. eigenvalues --   -0.17450  -0.14246  -0.11572
  Beta virt. eigenvalues --   -0.07167  -0.06500  -0.04801  -0.04177  -0.03334
  Beta virt. eigenvalues --   -0.02608  -0.02122  -0.01552  -0.00940  -0.00588
  Beta virt. eigenvalues --   -0.00258   0.00125   0.00308   0.00594   0.00717

 Mulliken charges and spin densities:
               1          2
     1  Na   0.073408   0.102059
     2  Na   0.860462   0.097371
     3  Na  -0.227353   0.386817
     4  Na   0.698983  -0.158051
     5  Na  -1.590134   0.410328
     6  Na  -0.090922  -0.004016
     7  Na   0.275557   0.165493
 Sum of Mulliken charges =  -0.00000   1.00000

 Dipole moment (field-independent basis, Debye):
    X=             -3.1599    Y=             -0.3994    Z=              0.4574  Tot=              3.2177
 Quadrupole moment (field-independent basis, Debye-Ang):
   XX=            -56.0832   YY=            -74.6223   ZZ=            -65.1982
   XY=              2.2071   XZ=              3.1588   YZ=              2.2092

 Normal termination of Gaussian 16 at Mon Nov 13 17:47:39 2023.
