 Gaussian 16, Revision B.01,
 Gaussian 16:  ES64L-G16RevB.01 20-Dec-2017

 -------------------------
 #P B3LYP/6-311+g(d) force
 -------------------------

 ------------------------------
 Gaussian input prepared by ASE
 ------------------------------
 Symbolic Z-matrix:
 Charge =  0 Multiplicity = 2

                         Standard orientation:
 ---------------------------------------------------------------------
 Center     Atomic      Atomic             Coordinates (Angstroms)
 Number     Number       Type             X           Y           Z
 ---------------------------------------------------------------------
      1         11           0        0.425377   -0.005380   -1.581617
      2         11           0        0.854068   -1.418490    1.008324
      3         11           0        2.999911   -0.000818   -0.289706
      4         11           0        0.817856    1.650588    0.604243
      5         11           0       -1.424526    0.003639    1.678925
      6         11           0       -2.015378    1.421356   -0.627054
      7         11           0       -1.657307   -1.650895   -0.793116
 ---------------------------------------------------------------------

 SCF Done:  E(UB3LYP) =  -1136.07977018     A.U. after   23 cycles

 The electronic state is 2-A.
 Alpha  occ. eigenvalues --  -38.44534 -38.44529 -38.44325 -38.43493 -38.43398
 Alpha  occ. eigenvalues --  -38.43263 -38.42994  -2.20728  -2.20639  -2.20555
 Alpha  occ. eigenvalues --   -2.19585  -2.19492  -2.19461  -2.19188  -1.14553
 Alpha  occ. eigenvalues --   -1.14527  -1.14476  -1.14385  -1.14312  -1.14288
 Alpha  occ. eigenvalues --   -1.14239  -1.14177  -1.14101  -1.13298  -1.13245
 Alpha  occ. eigenvalues --   -1.13221  -1.13204  -1.13164  -1.13133  -1.13099
 Alpha  occ. eigenvalues --   -1.13056  -1.12974  -1.12881  -1.12828  -1.12741
 Alpha  occ. eigenvalues --   -0.21565  -0.14359  -0.12773  -0.11912
 Alpha virt. eigenvalues --   -0.05736  -0.04222  -0.03971  -0.03676  -0.02892
 Alpha virt. eigenvalues --   -0.02720  -0.01381  -0.00340  -0.00316   0.00292
 Alpha virt. eigenvalues --    0.00691   0.00911   0.00965   0.01054   0.01079

  Beta  occ. eigenvalues --  -38.44524 -38.44458 -38.44245 -38.43476 -38.43371
  Beta  occ. eigenvalues --  -38.43223 -38.42968  -2.20594  -2.20558  -2.20489
  Beta  occ. eigenvalues --   -2.19557  -2.19446  -2.19395  -2.19148  -1.14486
  Beta  occ. eigenvalues --   -1.14430  -1.14380  -1.14302  -1.14230  -1.14212
  Beta  occ. eigenvalues --   -1.14198  -1.14156  -1.14035  -1.13278  -1.13203
  Beta  occ. eigenvalues --   -1.13185  -1.13174  -1.13115  -1.13071  -1.13033
  Beta  occ. eigenvalues --   -1.13012  -1.12928  -1.12857  -1.12755  -1.12707
  Beta  occ. eigenvalues --   -0.20716  -0.14103  -0.11649
  Beta virt. eigenvalues --   -0.08335  -0.05655  -0.03983  -0.03443  -0.03213
  Beta virt. eigenvalues --   -0.02107  -0.01859  -0.01321  -0.00307  -0.00071
  Beta virt. eigenvalues --    0.00326   0.00744   0.00939   0.01065   0.01096

 Mulliken charges and spin densities:
               1          2
     1  Na  -0.024315   0.343909
     2  Na  -0.670582   0.222073
     3  Na   1.049484  -0.013031
     4  Na  -0.792444   0.201330
     5  Na   0.750778   0.260008
     6  Na  -0.074989  -0.035622
     7  Na  -0.237932   0.021332
 Sum of Mulliken charges =  -0.00000   1.00000

 Dipole moment (field-independent basis, Debye):
    X=              0.2071    Y=             -0.0677    Z=             -0.0546  Tot=              0.2246
 Quadrupole moment (field-independent basis, Debye-Ang):
   XX=            -55.4684   YY=            -75.4806   ZZ=            -65.5160
   XY=             -0.1907   XZ=              0.3380   YZ=              0.4200

 Normal termination of Gaussian 16 at Mon Nov 13 19:18:44 2023.
