 Gaussian 16, Revision B.01,
 Gaussian 16:  ES64L-G16RevB.01 20-Dec-2017

 -------------------------
 #P B3LYP/6-311+g(d) force
 -------------------------

 ------------------------------
 Gaussian input prepared by ASE
 ------------------------------
 Symbolic Z-matrix:
 Charge =  0 Multiplicity = 2

                         Standard orientation:
 ---------------------------------------------------------------------
 Center     Atomic      Atomic             Coordinates (Angstroms)
 Number     Number       Type             X           Y           Z
 ---------------------------------------------------------------------
      1         11           0       -0.959078   -1.379249   -0.205873
      2         11           0        1.460093   -1.426502   -1.986349
      3         11           0        1.001493   -1.359485    2.068509
      4         11           0        2.714769    0.228904    0.182989
      5         11           0        1.025527    2.706168    0.296491
      6         11           0       -1.546990    1.522377   -0.690831
      7         11           0       -3.695815   -0.292213    0.335064
 ---------------------------------------------------------------------

 SCF Done:  E(UB3LYP) =  -1136.10740902     A.U. after   21 cycles

 The electronic state is 2-A.
 Alpha  occ. eigenvalues --  -38.44987 -38.44439 -38.44398 -38.44292 -38.43672
 Alpha  occ. eigenvalues --  -38.43404 -38.42879  -2.20868  -2.20384  -2.20352
 Alpha  occ. eigenvalues --   -2.20215  -2.19643  -2.19477  -2.18767  -1.14580
 Alpha  occ. eigenvalues --   -1.14533  -1.14492  -1.14177  -1.14126  -1.14058
 Alpha  occ. eigenvalues --   -1.14032  -1.13936  -1.13913  -1.13900  -1.13813
 Alpha  occ. eigenvalues --   -1.13782  -1.13407  -1.13315  -1.13279  -1.13163
 Alpha  occ. eigenvalues --   -1.13114  -1.13066  -1.12446  -1.12431  -1.12386
 Alpha  occ. eigenvalues --   -0.19150  -0.14136  -0.12063  -0.11551
 Alpha virt. eigenvalues --   -0.06518  -0.04757  -0.04157  -0.03758  -0.02820
 Alpha virt. eigenvalues --   -0.02753  -0.02046  -0.00554  -0.00372   0.00040
 Alpha virt. eigenvalues --    0.00132   0.00305   0.00372   0.00838   0.00936

  Beta  occ. eigenvalues --  -38.44991 -38.44380 -38.44353 -38.44206 -38.43666
  Beta  occ. eigenvalues --  -38.43383 -38.42880  -2.20876  -2.20358  -2.20195
  Beta  occ. eigenvalues --   -2.20056  -2.19632  -2.19447  -2.18771  -1.14586
  Beta  occ. eigenvalues --   -1.14539  -1.14493  -1.14109  -1.14071  -1.14029
  Beta  occ. eigenvalues --   -1.13941  -1.13826  -1.13817  -1.13803  -1.13717
  Beta  occ. eigenvalues --   -1.13675  -1.13399  -1.13315  -1.13258  -1.13105
  Beta  occ. eigenvalues --   -1.13073  -1.13056  -1.12449  -1.12435  -1.12379
  Beta  occ. eigenvalues --   -0.18444  -0.13930  -0.11869
  Beta virt. eigenvalues --   -0.07500  -0.06311  -0.04639  -0.03861  -0.03227
  Beta virt. eigenvalues --   -0.02134  -0.02065  -0.01785  -0.00506  -0.00048
  Beta virt. eigenvalues --    0.00096   0.00205   0.00355   0.00608   0.00883

 Mulliken charges and spin densities:
               1          2
     1  Na  -0.550960   0.369090
     2  Na   0.657470   0.363652
     3  Na   0.220181   0.253978
     4  Na  -0.120131   0.178525
     5  Na   0.089173   0.036351
     6  Na  -0.795405  -0.056843
     7  Na   0.499672  -0.144753
 Sum of Mulliken charges =  -0.00000   1.00000

 Dipole moment (field-independent basis, Debye):
    X=             -0.7560    Y=             -0.4847    Z=              0.2841  Tot=              0.9419
 Quadrupole moment (field-independent basis, Debye-Ang):
   XX=            -52.8625   YY=            -74.6697   ZZ=            -68.3744
   XY=             -0.0914   XZ=             -2.0782   YZ=              0.0861

 Normal termination of Gaussian 16 at Mon Nov 13 15:12:38 2023.
