 Gaussian 16, Revision B.01,
 Gaussian 16:  ES64L-G16RevB.01 20-Dec-2017

 -------------------------
 #P B3LYP/6-311+g(d) force
 -------------------------

 ------------------------------
 Gaussian input prepared by ASE
 ------------------------------
 Symbolic Z-matrix:
 Charge =  0 Multiplicity = 2

                         Standard orientation:
 ---------------------------------------------------------------------
 Center     Atomic      Atomic             Coordinates (Angstroms)
 Number     Number       Type             X           Y           Z
 ---------------------------------------------------------------------
      1         11           0       -0.892547   -1.484920   -1.134137
      2         11           0        3.537664   -1.613572   -0.669666
      3         11           0        1.910245    1.426410    2.230126
      4         11           0        1.346788    0.431514   -0.543603
      5         11           0       -0.710478    2.537186   -1.149321
      6         11           0       -2.788097    0.616193   -0.147232
      7         11           0       -2.403574   -1.912811    1.413832
 ---------------------------------------------------------------------

 SCF Done:  E(UB3LYP) =  -1136.10445106     A.U. after   24 cycles

 The electronic state is 2-A.
 Alpha  occ. eigenvalues --  -38.44937 -38.44646 -38.44521 -38.44277 -38.43723
 Alpha  occ. eigenvalues --  -38.42947 -38.42856  -2.20768  -2.20496  -2.20445
 Alpha  occ. eigenvalues --   -2.20267  -2.19633  -2.19034  -2.18765  -1.14453
 Alpha  occ. eigenvalues --   -1.14388  -1.14353  -1.14247  -1.14191  -1.14153
 Alpha  occ. eigenvalues --   -1.14149  -1.14085  -1.14073  -1.13961  -1.13910
 Alpha  occ. eigenvalues --   -1.13893  -1.13289  -1.13277  -1.13238  -1.12759
 Alpha  occ. eigenvalues --   -1.12720  -1.12698  -1.12444  -1.12396  -1.12368
 Alpha  occ. eigenvalues --   -0.18506  -0.14022  -0.11886  -0.11199
 Alpha virt. eigenvalues --   -0.06394  -0.04874  -0.04315  -0.03715  -0.02762
 Alpha virt. eigenvalues --   -0.02455  -0.02034  -0.00824  -0.00374  -0.00149
 Alpha virt. eigenvalues --    0.00166   0.00253   0.00544   0.00664   0.00797

  Beta  occ. eigenvalues --  -38.44827 -38.44635 -38.44500 -38.44271 -38.43697
  Beta  occ. eigenvalues --  -38.42923 -38.42851  -2.20562  -2.20461  -2.20426
  Beta  occ. eigenvalues --   -2.20259  -2.19584  -2.19001  -2.18758  -1.14316
  Beta  occ. eigenvalues --   -1.14247  -1.14229  -1.14213  -1.14162  -1.14138
  Beta  occ. eigenvalues --   -1.14113  -1.14073  -1.14051  -1.13926  -1.13908
  Beta  occ. eigenvalues --   -1.13889  -1.13258  -1.13243  -1.13205  -1.12718
  Beta  occ. eigenvalues --   -1.12698  -1.12634  -1.12442  -1.12387  -1.12350
  Beta  occ. eigenvalues --   -0.17922  -0.13544  -0.11682
  Beta virt. eigenvalues --   -0.07460  -0.06186  -0.04336  -0.04063  -0.03530
  Beta virt. eigenvalues --   -0.02194  -0.01986  -0.01700  -0.00739  -0.00128
  Beta virt. eigenvalues --   -0.00019   0.00273   0.00375   0.00631   0.00862

 Mulliken charges and spin densities:
               1          2
     1  Na  -0.542226   0.166559
     2  Na   0.044101  -0.035965
     3  Na   0.041381   0.454627
     4  Na  -1.801624   0.019861
     5  Na   1.576684   0.112722
     6  Na   0.533070   0.029344
     7  Na   0.148614   0.252853
 Sum of Mulliken charges =  -0.00000   1.00000

 Dipole moment (field-independent basis, Debye):
    X=              0.1560    Y=             -0.4257    Z=              0.6098  Tot=              0.7598
 Quadrupole moment (field-independent basis, Debye-Ang):
   XX=            -58.8921   YY=            -69.3298   ZZ=            -67.0433
   XY=             -3.6564   XZ=             -0.6497   YZ=              0.6768

 Normal termination of Gaussian 16 at Mon Nov 13 15:09:43 2023.
