 Gaussian 16, Revision B.01,
 Gaussian 16:  ES64L-G16RevB.01 20-Dec-2017

 -------------------------
 #P B3LYP/6-311+g(d) force
 -------------------------

 ------------------------------
 Gaussian input prepared by ASE
 ------------------------------
 Symbolic Z-matrix:
 Charge =  0 Multiplicity = 2

                         Standard orientation:
 ---------------------------------------------------------------------
 Center     Atomic      Atomic             Coordinates (Angstroms)
 Number     Number       Type             X           Y           Z
 ---------------------------------------------------------------------
      1         11           0        0.238420   -1.079723   -1.660704
      2         11           0        1.262930   -0.048737    2.025935
      3         11           0        2.671409   -1.701803   -0.031985
      4         11           0        1.976310    1.145217   -0.635592
      5         11           0       -0.580483    2.697405   -0.360462
      6         11           0       -1.400001   -0.018933    0.625817
      7         11           0       -4.168585   -0.993426    0.036990
 ---------------------------------------------------------------------

 SCF Done:  E(UB3LYP) =  -1136.10119984     A.U. after   24 cycles

 The electronic state is 2-A.
 Alpha  occ. eigenvalues --  -38.44706 -38.44641 -38.44631 -38.43775 -38.43774
 Alpha  occ. eigenvalues --  -38.43150 -38.43115  -2.20702  -2.20650  -2.20428
 Alpha  occ. eigenvalues --   -2.19890  -2.19770  -2.19233  -2.19027  -1.14431
 Alpha  occ. eigenvalues --   -1.14358  -1.14348  -1.14338  -1.14321  -1.14231
 Alpha  occ. eigenvalues --   -1.14135  -1.14076  -1.14065  -1.13633  -1.13570
 Alpha  occ. eigenvalues --   -1.13532  -1.13415  -1.13401  -1.13358  -1.12942
 Alpha  occ. eigenvalues --   -1.12927  -1.12887  -1.12686  -1.12643  -1.12631
 Alpha  occ. eigenvalues --   -0.19999  -0.13654  -0.11911  -0.11795
 Alpha virt. eigenvalues --   -0.06838  -0.04703  -0.03762  -0.03432  -0.02846
 Alpha virt. eigenvalues --   -0.02530  -0.02193  -0.00978  -0.00374   0.00029
 Alpha virt. eigenvalues --    0.00119   0.00312   0.00521   0.00769   0.00919

  Beta  occ. eigenvalues --  -38.44654 -38.44632 -38.44529 -38.43763 -38.43742
  Beta  occ. eigenvalues --  -38.43128 -38.43114  -2.20569  -2.20463  -2.20452
  Beta  occ. eigenvalues --   -2.19839  -2.19755  -2.19196  -2.19027  -1.14349
  Beta  occ. eigenvalues --   -1.14254  -1.14228  -1.14218  -1.14206  -1.14149
  Beta  occ. eigenvalues --   -1.14098  -1.14092  -1.14080  -1.13612  -1.13525
  Beta  occ. eigenvalues --   -1.13452  -1.13396  -1.13361  -1.13334  -1.12914
  Beta  occ. eigenvalues --   -1.12909  -1.12836  -1.12678  -1.12636  -1.12622
  Beta  occ. eigenvalues --   -0.19127  -0.13485  -0.11617
  Beta virt. eigenvalues --   -0.07675  -0.06647  -0.04666  -0.03208  -0.02896
  Beta virt. eigenvalues --   -0.02337  -0.02021  -0.01641  -0.00926  -0.00087
  Beta virt. eigenvalues --    0.00004   0.00166   0.00476   0.00634   0.00799

 Mulliken charges and spin densities:
               1          2
     1  Na  -0.695643   0.378600
     2  Na   0.894949   0.433905
     3  Na   0.699975  -0.025026
     4  Na   0.386859   0.283921
     5  Na  -0.195588  -0.024735
     6  Na  -0.421985   0.031077
     7  Na  -0.668567  -0.077743
 Sum of Mulliken charges =  -0.00000   1.00000

 Dipole moment (field-independent basis, Debye):
    X=             -0.0842    Y=              0.0160    Z=             -0.1899  Tot=              0.2083
 Quadrupole moment (field-independent basis, Debye-Ang):
   XX=            -54.6041   YY=            -70.3520   ZZ=            -69.2928
   XY=             -1.2301   XZ=              1.4688   YZ=             -0.0110

 Normal termination of Gaussian 16 at Mon Nov 13 16:35:19 2023.
