 Gaussian 16, Revision B.01,
 Gaussian 16:  ES64L-G16RevB.01 20-Dec-2017

 -------------------------
 #P B3LYP/6-311+g(d) force
 -------------------------

 ------------------------------
 Gaussian input prepared by ASE
 ------------------------------
 Symbolic Z-matrix:
 Charge =  0 Multiplicity = 2

                         Standard orientation:
 ---------------------------------------------------------------------
 Center     Atomic      Atomic             Coordinates (Angstroms)
 Number     Number       Type             X           Y           Z
 ---------------------------------------------------------------------
      1         11           0        0.322482    0.967220   -0.259302
      2         11           0        3.117115    0.972874   -1.349447
      3         11           0        1.170457    0.175235    2.510693
      4         11           0        2.076937   -1.419317    0.136902
      5         11           0       -0.721178   -1.779539   -0.875899
      6         11           0       -3.456350   -0.880740   -0.027897
      7         11           0       -2.509464    1.964267   -0.135050
 ---------------------------------------------------------------------

 SCF Done:  E(UB3LYP) =  -1136.09497968     A.U. after   26 cycles

 The electronic state is 2-A.
 Alpha  occ. eigenvalues --  -38.45142 -38.45141 -38.45085 -38.43718 -38.43601
 Alpha  occ. eigenvalues --  -38.43541 -38.42756  -2.21062  -2.21016  -2.20992
 Alpha  occ. eigenvalues --   -2.19802  -2.19701  -2.19484  -2.18724  -1.14769
 Alpha  occ. eigenvalues --   -1.14700  -1.14693  -1.14691  -1.14688  -1.14660
 Alpha  occ. eigenvalues --   -1.14650  -1.14635  -1.14581  -1.13609  -1.13469
 Alpha  occ. eigenvalues --   -1.13443  -1.13404  -1.13383  -1.13326  -1.13143
 Alpha  occ. eigenvalues --   -1.13115  -1.13102  -1.12429  -1.12366  -1.12334
 Alpha  occ. eigenvalues --   -0.19487  -0.14652  -0.11937  -0.11049
 Alpha virt. eigenvalues --   -0.06898  -0.05326  -0.03777  -0.03618  -0.02606
 Alpha virt. eigenvalues --   -0.02541  -0.02245  -0.00960  -0.00521  -0.00059
 Alpha virt. eigenvalues --    0.00109   0.00353   0.00615   0.00784   0.00855

  Beta  occ. eigenvalues --  -38.45149 -38.45021 -38.45011 -38.43691 -38.43610
  Beta  occ. eigenvalues --  -38.43524 -38.42748  -2.21032  -2.20857  -2.20839
  Beta  occ. eigenvalues --   -2.19766  -2.19679  -2.19502  -2.18712  -1.14714
  Beta  occ. eigenvalues --   -1.14700  -1.14667  -1.14622  -1.14602  -1.14556
  Beta  occ. eigenvalues --   -1.14535  -1.14481  -1.14479  -1.13601  -1.13428
  Beta  occ. eigenvalues --   -1.13377  -1.13360  -1.13318  -1.13310  -1.13157
  Beta  occ. eigenvalues --   -1.13122  -1.13108  -1.12425  -1.12357  -1.12314
  Beta  occ. eigenvalues --   -0.18696  -0.14407  -0.10895
  Beta virt. eigenvalues --   -0.07743  -0.06637  -0.05198  -0.03313  -0.03179
  Beta virt. eigenvalues --   -0.02432  -0.01859  -0.01542  -0.00880  -0.00202
  Beta virt. eigenvalues --    0.00020   0.00173   0.00379   0.00735   0.00874

 Mulliken charges and spin densities:
               1          2
     1  Na  -1.124244   0.249019
     2  Na  -0.213883   0.213597
     3  Na  -0.095448   0.393642
     4  Na   1.287514   0.172740
     5  Na  -0.609352   0.083171
     6  Na   0.656267  -0.017823
     7  Na   0.099147  -0.094346
 Sum of Mulliken charges =  -0.00000   1.00000

 Dipole moment (field-independent basis, Debye):
    X=              0.0735    Y=             -0.0912    Z=              0.6521  Tot=              0.6626
 Quadrupole moment (field-independent basis, Debye-Ang):
   XX=            -48.6757   YY=            -78.2212   ZZ=            -67.1630
   XY=              0.7975   XZ=             -2.0519   YZ=             -2.4091

 Normal termination of Gaussian 16 at Mon Nov 13 15:15:46 2023.
