 Gaussian 16, Revision B.01,
 Gaussian 16:  ES64L-G16RevB.01 20-Dec-2017

 -------------------------
 #P B3LYP/6-311+g(d) force
 -------------------------

 ------------------------------
 Gaussian input prepared by ASE
 ------------------------------
 Symbolic Z-matrix:
 Charge =  0 Multiplicity = 2

                         Standard orientation:
 ---------------------------------------------------------------------
 Center     Atomic      Atomic             Coordinates (Angstroms)
 Number     Number       Type             X           Y           Z
 ---------------------------------------------------------------------
      1         11           0        0.436176    1.657306    1.192677
      2         11           0        0.964107   -1.275513    1.546204
      3         11           0        3.301288   -1.090088   -0.330077
      4         11           0        1.607828    1.088640   -1.513844
      5         11           0       -2.290259    2.240282    0.096235
      6         11           0       -0.893648   -0.315756   -0.611517
      7         11           0       -3.125491   -2.304870   -0.379678
 ---------------------------------------------------------------------

 SCF Done:  E(UB3LYP) =  -1136.10105582     A.U. after   20 cycles

 The electronic state is 2-A.
 Alpha  occ. eigenvalues --  -38.44923 -38.44835 -38.44227 -38.44004 -38.43480
 Alpha  occ. eigenvalues --  -38.43452 -38.42903  -2.20815  -2.20710  -2.20228
 Alpha  occ. eigenvalues --   -2.20003  -2.19547  -2.19286  -2.19079  -1.14529
 Alpha  occ. eigenvalues --   -1.14503  -1.14439  -1.14438  -1.14382  -1.14313
 Alpha  occ. eigenvalues --   -1.13958  -1.13888  -1.13802  -1.13770  -1.13633
 Alpha  occ. eigenvalues --   -1.13589  -1.13274  -1.13172  -1.13132  -1.13029
 Alpha  occ. eigenvalues --   -1.12930  -1.12919  -1.12763  -1.12710  -1.12656
 Alpha  occ. eigenvalues --   -0.19657  -0.13794  -0.11832  -0.11314
 Alpha virt. eigenvalues --   -0.06439  -0.05466  -0.03687  -0.03310  -0.02845
 Alpha virt. eigenvalues --   -0.02193  -0.02062  -0.01162  -0.00276   0.00091
 Alpha virt. eigenvalues --    0.00111   0.00428   0.00619   0.00751   0.00805

  Beta  occ. eigenvalues --  -38.44911 -38.44837 -38.44160 -38.43932 -38.43475
  Beta  occ. eigenvalues --  -38.43404 -38.42881  -2.20798  -2.20716  -2.20106
  Beta  occ. eigenvalues --   -2.19873  -2.19465  -2.19278  -2.19043  -1.14497
  Beta  occ. eigenvalues --   -1.14482  -1.14442  -1.14424  -1.14372  -1.14319
  Beta  occ. eigenvalues --   -1.13879  -1.13796  -1.13717  -1.13677  -1.13529
  Beta  occ. eigenvalues --   -1.13506  -1.13225  -1.13106  -1.13047  -1.13018
  Beta  occ. eigenvalues --   -1.12924  -1.12912  -1.12714  -1.12671  -1.12637
  Beta  occ. eigenvalues --   -0.18903  -0.13513  -0.11627
  Beta virt. eigenvalues --   -0.07302  -0.06311  -0.05221  -0.03218  -0.02898
  Beta virt. eigenvalues --   -0.02176  -0.02137  -0.01410  -0.00962  -0.00023
  Beta virt. eigenvalues --    0.00138   0.00168   0.00470   0.00690   0.00823

 Mulliken charges and spin densities:
               1          2
     1  Na   0.599312   0.237693
     2  Na  -0.097757   0.300218
     3  Na   0.340320  -0.068440
     4  Na   0.099825   0.301768
     5  Na   0.024511  -0.076709
     6  Na  -1.403333   0.331228
     7  Na   0.437121  -0.025758
 Sum of Mulliken charges =  -0.00000   1.00000

 Dipole moment (field-independent basis, Debye):
    X=              0.4620    Y=              0.5317    Z=              0.2188  Tot=              0.7375
 Quadrupole moment (field-independent basis, Debye-Ang):
   XX=            -53.1811   YY=            -66.9802   ZZ=            -71.9572
   XY=             -5.9217   XZ=             -0.9825   YZ=             -0.7029

 Normal termination of Gaussian 16 at Mon Nov 13 18:40:31 2023.
