 Gaussian 16, Revision B.01,
 Gaussian 16:  ES64L-G16RevB.01 20-Dec-2017

 -------------------------
 #P B3LYP/6-311+g(d) force
 -------------------------

 ------------------------------
 Gaussian input prepared by ASE
 ------------------------------
 Symbolic Z-matrix:
 Charge =  0 Multiplicity = 2

                         Standard orientation:
 ---------------------------------------------------------------------
 Center     Atomic      Atomic             Coordinates (Angstroms)
 Number     Number       Type             X           Y           Z
 ---------------------------------------------------------------------
      1         11           0        1.806420   -2.013790   -1.186531
      2         11           0        3.149252    0.320332    0.114182
      3         11           0       -0.045351    3.186964    0.377770
      4         11           0        0.150193    0.210852   -0.033600
      5         11           0       -1.921004    0.372201   -2.206171
      6         11           0       -2.505032   -1.143659    0.304891
      7         11           0       -0.634479   -0.932901    2.629460
 ---------------------------------------------------------------------

 SCF Done:  E(UB3LYP) =  -1136.10399409     A.U. after   23 cycles

 The electronic state is 2-A.
 Alpha  occ. eigenvalues --  -38.44336 -38.44312 -38.44209 -38.44035 -38.43582
 Alpha  occ. eigenvalues --  -38.43459 -38.42342  -2.20241  -2.20213  -2.20092
 Alpha  occ. eigenvalues --   -2.19945  -2.19437  -2.19400  -2.18648  -1.13993
 Alpha  occ. eigenvalues --   -1.13977  -1.13898  -1.13884  -1.13817  -1.13816
 Alpha  occ. eigenvalues --   -1.13782  -1.13719  -1.13682  -1.13663  -1.13590
 Alpha  occ. eigenvalues --   -1.13532  -1.13152  -1.13121  -1.13090  -1.13033
 Alpha  occ. eigenvalues --   -1.13032  -1.13009  -1.12399  -1.12299  -1.12243
 Alpha  occ. eigenvalues --   -0.18833  -0.13363  -0.12155  -0.11538
 Alpha virt. eigenvalues --   -0.05392  -0.04689  -0.04110  -0.03598  -0.03324
 Alpha virt. eigenvalues --   -0.02512  -0.01329  -0.00869  -0.00619   0.00233
 Alpha virt. eigenvalues --    0.00329   0.00478   0.00774   0.00876   0.00930

  Beta  occ. eigenvalues --  -38.44277 -38.44274 -38.44214 -38.43968 -38.43548
  Beta  occ. eigenvalues --  -38.43451 -38.42314  -2.20145  -2.20134  -2.20101
  Beta  occ. eigenvalues --   -2.19821  -2.19429  -2.19339  -2.18609  -1.13965
  Beta  occ. eigenvalues --   -1.13904  -1.13836  -1.13825  -1.13782  -1.13768
  Beta  occ. eigenvalues --   -1.13739  -1.13721  -1.13647  -1.13602  -1.13504
  Beta  occ. eigenvalues --   -1.13446  -1.13152  -1.13076  -1.13036  -1.13029
  Beta  occ. eigenvalues --   -1.12991  -1.12967  -1.12290  -1.12269  -1.12232
  Beta  occ. eigenvalues --   -0.18016  -0.13053  -0.11212
  Beta virt. eigenvalues --   -0.08323  -0.05140  -0.04296  -0.03624  -0.03174
  Beta virt. eigenvalues --   -0.02975  -0.01880  -0.01255  -0.00684  -0.00403
  Beta virt. eigenvalues --    0.00351   0.00458   0.00603   0.00819   0.00904

 Mulliken charges and spin densities:
               1          2
     1  Na   0.473722   0.190216
     2  Na   0.231870  -0.238230
     3  Na   0.690875  -0.143723
     4  Na  -1.589658   0.652730
     5  Na   0.236453   0.269236
     6  Na   0.004501   0.144651
     7  Na  -0.047763   0.125120
 Sum of Mulliken charges =  -0.00000   1.00000

 Dipole moment (field-independent basis, Debye):
    X=              0.3984    Y=             -0.2972    Z=             -0.1421  Tot=              0.5170
 Quadrupole moment (field-independent basis, Debye-Ang):
   XX=            -61.5257   YY=            -68.4378   ZZ=            -63.0794
   XY=              0.5479   XZ=              3.2393   YZ=              5.0686

 Normal termination of Gaussian 16 at Mon Nov 13 20:09:05 2023.
