 Gaussian 16, Revision B.01,
 Gaussian 16:  ES64L-G16RevB.01 20-Dec-2017

 -------------------------
 #P B3LYP/6-311+g(d) force
 -------------------------

 ------------------------------
 Gaussian input prepared by ASE
 ------------------------------
 Symbolic Z-matrix:
 Charge =  0 Multiplicity = 2

                         Standard orientation:
 ---------------------------------------------------------------------
 Center     Atomic      Atomic             Coordinates (Angstroms)
 Number     Number       Type             X           Y           Z
 ---------------------------------------------------------------------
      1         11           0       -1.107992    1.083565   -1.520654
      2         11           0       -3.437110    0.596638    0.309054
      3         11           0       -1.797917   -1.589507    1.545894
      4         11           0       -0.236222   -1.744664   -1.012474
      5         11           0        2.740174   -1.591999   -0.686532
      6         11           0        2.901537    0.662178    1.282765
      7         11           0        0.937531    2.583789    0.081948
 ---------------------------------------------------------------------

 SCF Done:  E(UB3LYP) =  -1136.10572176     A.U. after   21 cycles

 The electronic state is 2-A.
 Alpha  occ. eigenvalues --  -38.45307 -38.44602 -38.44485 -38.44249 -38.43686
 Alpha  occ. eigenvalues --  -38.43581 -38.43577  -2.21194  -2.20501  -2.20360
 Alpha  occ. eigenvalues --   -2.20143  -2.19683  -2.19563  -2.19454  -1.14901
 Alpha  occ. eigenvalues --   -1.14878  -1.14812  -1.14191  -1.14135  -1.14121
 Alpha  occ. eigenvalues --   -1.14112  -1.14058  -1.13980  -1.13834  -1.13768
 Alpha  occ. eigenvalues --   -1.13743  -1.13435  -1.13408  -1.13311  -1.13218
 Alpha  occ. eigenvalues --   -1.13184  -1.13148  -1.13112  -1.13088  -1.13065
 Alpha  occ. eigenvalues --   -0.18610  -0.14449  -0.12148  -0.11232
 Alpha virt. eigenvalues --   -0.06690  -0.04972  -0.04427  -0.03706  -0.03381
 Alpha virt. eigenvalues --   -0.02396  -0.02019  -0.00556  -0.00334  -0.00108
 Alpha virt. eigenvalues --    0.00172   0.00182   0.00238   0.00719   0.00805

  Beta  occ. eigenvalues --  -38.45285 -38.44554 -38.44477 -38.44207 -38.43628
  Beta  occ. eigenvalues --  -38.43577 -38.43535  -2.21158  -2.20414  -2.20349
  Beta  occ. eigenvalues --   -2.20066  -2.19576  -2.19489  -2.19451  -1.14862
  Beta  occ. eigenvalues --   -1.14835  -1.14792  -1.14131  -1.14080  -1.14071
  Beta  occ. eigenvalues --   -1.14059  -1.14044  -1.13976  -1.13782  -1.13717
  Beta  occ. eigenvalues --   -1.13695  -1.13356  -1.13350  -1.13237  -1.13153
  Beta  occ. eigenvalues --   -1.13137  -1.13107  -1.13087  -1.13079  -1.13039
  Beta  occ. eigenvalues --   -0.18009  -0.13952  -0.11928
  Beta virt. eigenvalues --   -0.07554  -0.06619  -0.04476  -0.04082  -0.03405
  Beta virt. eigenvalues --   -0.02759  -0.02034  -0.01556  -0.00484  -0.00054
  Beta virt. eigenvalues --   -0.00038   0.00211   0.00300   0.00394   0.00803

 Mulliken charges and spin densities:
               1          2
     1  Na   0.089326   0.328070
     2  Na   0.392541  -0.042752
     3  Na  -0.152075   0.305942
     4  Na  -0.075910   0.274492
     5  Na   0.078913  -0.075038
     6  Na  -0.121577   0.199606
     7  Na  -0.211217   0.009680
 Sum of Mulliken charges =  -0.00000   1.00000

 Dipole moment (field-independent basis, Debye):
    X=             -0.5173    Y=             -0.1212    Z=              0.4650  Tot=              0.7060
 Quadrupole moment (field-independent basis, Debye-Ang):
   XX=            -56.5862   YY=            -73.4371   ZZ=            -69.1586
   XY=             -4.0135   XZ=              0.1403   YZ=              0.1967

 Normal termination of Gaussian 16 at Mon Nov 13 14:53:51 2023.
