 Gaussian 16, Revision B.01,
 Gaussian 16:  ES64L-G16RevB.01 20-Dec-2017

 -------------------------
 #P B3LYP/6-311+g(d) force
 -------------------------

 ------------------------------
 Gaussian input prepared by ASE
 ------------------------------
 Symbolic Z-matrix:
 Charge =  0 Multiplicity = 2

                         Standard orientation:
 ---------------------------------------------------------------------
 Center     Atomic      Atomic             Coordinates (Angstroms)
 Number     Number       Type             X           Y           Z
 ---------------------------------------------------------------------
      1         11           0        0.207873   -0.736224   -1.231665
      2         11           0       -1.445525    1.473396   -0.781937
      3         11           0       -2.518115   -1.167456   -0.536093
      4         11           0       -1.292271    0.275194    1.583376
      5         11           0        1.050152    1.640752    0.348342
      6         11           0        2.950545   -0.246077   -0.625849
      7         11           0        1.047342   -1.239584    1.243826
 ---------------------------------------------------------------------

 SCF Done:  E(UB3LYP) =  -1136.05841630     A.U. after   25 cycles

 The electronic state is 2-A.
 Alpha  occ. eigenvalues --  -38.44944 -38.44513 -38.44283 -38.44182 -38.44044
 Alpha  occ. eigenvalues --  -38.43959 -38.42763  -2.20994  -2.20786  -2.20498
 Alpha  occ. eigenvalues --   -2.20402  -2.20246  -2.20193  -2.19000  -1.14885
 Alpha  occ. eigenvalues --   -1.14748  -1.14674  -1.14650  -1.14622  -1.14448
 Alpha  occ. eigenvalues --   -1.14408  -1.14281  -1.14137  -1.14048  -1.14003
 Alpha  occ. eigenvalues --   -1.13971  -1.13852  -1.13826  -1.13791  -1.13754
 Alpha  occ. eigenvalues --   -1.13702  -1.13658  -1.12706  -1.12610  -1.12602
 Alpha  occ. eigenvalues --   -0.21808  -0.14838  -0.12658  -0.11717
 Alpha virt. eigenvalues --   -0.06180  -0.04388  -0.04128  -0.03482  -0.02513
 Alpha virt. eigenvalues --   -0.02449  -0.01683  -0.00364  -0.00297   0.00285
 Alpha virt. eigenvalues --    0.00606   0.00804   0.00935   0.01042   0.01117

  Beta  occ. eigenvalues --  -38.44931 -38.44438 -38.44224 -38.44168 -38.43988
  Beta  occ. eigenvalues --  -38.43927 -38.42742  -2.20972  -2.20656  -2.20399
  Beta  occ. eigenvalues --   -2.20308  -2.20220  -2.20141  -2.18972  -1.14859
  Beta  occ. eigenvalues --   -1.14684  -1.14626  -1.14609  -1.14548  -1.14369
  Beta  occ. eigenvalues --   -1.14333  -1.14214  -1.14078  -1.13973  -1.13928
  Beta  occ. eigenvalues --   -1.13922  -1.13802  -1.13775  -1.13736  -1.13709
  Beta  occ. eigenvalues --   -1.13643  -1.13605  -1.12693  -1.12596  -1.12518
  Beta  occ. eigenvalues --   -0.20933  -0.14577  -0.11475
  Beta virt. eigenvalues --   -0.08185  -0.06068  -0.04129  -0.03589  -0.03060
  Beta virt. eigenvalues --   -0.01806  -0.01597  -0.01580  -0.00294  -0.00067
  Beta virt. eigenvalues --    0.00326   0.00659   0.00852   0.01037   0.01106

 Mulliken charges and spin densities:
               1          2
     1  Na  -0.966310   0.336759
     2  Na   0.548549   0.250851
     3  Na  -0.141818  -0.113966
     4  Na   0.207030   0.136766
     5  Na  -1.056435   0.222833
     6  Na   1.801390  -0.015325
     7  Na  -0.392406   0.182082
 Sum of Mulliken charges =  -0.00000   1.00000

 Dipole moment (field-independent basis, Debye):
    X=              0.2458    Y=             -0.1385    Z=             -0.0154  Tot=              0.2825
 Quadrupole moment (field-independent basis, Debye-Ang):
   XX=            -52.7583   YY=            -77.0437   ZZ=            -66.4883
   XY=              0.9813   XZ=             -0.6308   YZ=             -1.3179

 Normal termination of Gaussian 16 at Mon Nov 13 17:08:06 2023.
