 Gaussian 16, Revision B.01,
 Gaussian 16:  ES64L-G16RevB.01 20-Dec-2017

 -------------------------
 #P B3LYP/6-311+g(d) force
 -------------------------

 ------------------------------
 Gaussian input prepared by ASE
 ------------------------------
 Symbolic Z-matrix:
 Charge =  0 Multiplicity = 2

                         Standard orientation:
 ---------------------------------------------------------------------
 Center     Atomic      Atomic             Coordinates (Angstroms)
 Number     Number       Type             X           Y           Z
 ---------------------------------------------------------------------
      1         11           0        0.999515    0.000525    1.505655
      2         11           0       -1.349376   -1.487920    0.362033
      3         11           0       -3.850349   -0.000615   -0.355116
      4         11           0       -1.349332    1.487647    0.359535
      5         11           0        2.494733    1.955441   -0.220709
      6         11           0        0.556191   -0.001735   -1.430287
      7         11           0        2.498619   -1.953344   -0.221111
 ---------------------------------------------------------------------

 SCF Done:  E(UB3LYP) =  -1136.09765850     A.U. after   23 cycles

 The electronic state is 2-A.
 Alpha  occ. eigenvalues --  -38.45357 -38.44022 -38.43618 -38.43615 -38.43429
 Alpha  occ. eigenvalues --  -38.43426 -38.43056  -2.21245  -2.20193  -2.19538
 Alpha  occ. eigenvalues --   -2.19532  -2.19518  -2.19494  -2.19270  -1.14940
 Alpha  occ. eigenvalues --   -1.14916  -1.14860  -1.13998  -1.13890  -1.13818
 Alpha  occ. eigenvalues --   -1.13412  -1.13280  -1.13266  -1.13210  -1.13205
 Alpha  occ. eigenvalues --   -1.13192  -1.13191  -1.13143  -1.13138  -1.13122
 Alpha  occ. eigenvalues --   -1.13119  -1.13002  -1.12930  -1.12862  -1.12778
 Alpha  occ. eigenvalues --   -0.20210  -0.14769  -0.11499  -0.10829
 Alpha virt. eigenvalues --   -0.07134  -0.05023  -0.03782  -0.03097  -0.02563
 Alpha virt. eigenvalues --   -0.01994  -0.01787  -0.01290  -0.00459   0.00028
 Alpha virt. eigenvalues --    0.00229   0.00331   0.00682   0.00794   0.00804

  Beta  occ. eigenvalues --  -38.45343 -38.43975 -38.43607 -38.43604 -38.43403
  Beta  occ. eigenvalues --  -38.43400 -38.42975  -2.21219  -2.20110  -2.19522
  Beta  occ. eigenvalues --   -2.19516  -2.19479  -2.19454  -2.19128  -1.14926
  Beta  occ. eigenvalues --   -1.14898  -1.14834  -1.13923  -1.13831  -1.13762
  Beta  occ. eigenvalues --   -1.13364  -1.13261  -1.13245  -1.13187  -1.13175
  Beta  occ. eigenvalues --   -1.13161  -1.13127  -1.13109  -1.13106  -1.13104
  Beta  occ. eigenvalues --   -1.13059  -1.12984  -1.12843  -1.12752  -1.12682
  Beta  occ. eigenvalues --   -0.19437  -0.14466  -0.11258
  Beta virt. eigenvalues --   -0.06974  -0.06742  -0.04976  -0.03270  -0.02879
  Beta virt. eigenvalues --   -0.02422  -0.01394  -0.01223  -0.00923  -0.00156
  Beta virt. eigenvalues --    0.00095   0.00318   0.00322   0.00798   0.00835

 Mulliken charges and spin densities:
               1          2
     1  Na   0.012245   0.114983
     2  Na   0.149317   0.088818
     3  Na   0.251925   0.123842
     4  Na   0.147578   0.089132
     5  Na   0.092083   0.056652
     6  Na  -0.745179   0.470248
     7  Na   0.092032   0.056326
 Sum of Mulliken charges =  -0.00000   1.00000

 Dipole moment (field-independent basis, Debye):
    X=             -0.6750    Y=              0.0000    Z=              0.1116  Tot=              0.6842
 Quadrupole moment (field-independent basis, Debye-Ang):
   XX=            -45.1670   YY=            -72.8966   ZZ=            -72.9007
   XY=              0.0065   XZ=              1.5744   YZ=             -0.0040

 Normal termination of Gaussian 16 at Mon Nov 13 18:58:10 2023.
