 Gaussian 16, Revision B.01,
 Gaussian 16:  ES64L-G16RevB.01 20-Dec-2017

 -------------------------
 #P B3LYP/6-311+g(d) force
 -------------------------

 ------------------------------
 Gaussian input prepared by ASE
 ------------------------------
 Symbolic Z-matrix:
 Charge =  0 Multiplicity = 2

                         Standard orientation:
 ---------------------------------------------------------------------
 Center     Atomic      Atomic             Coordinates (Angstroms)
 Number     Number       Type             X           Y           Z
 ---------------------------------------------------------------------
      1         11           0       -1.249252    0.847410   -1.434620
      2         11           0       -1.370445   -1.844381   -0.133329
      3         11           0       -3.724380    0.007685    0.030001
      4         11           0       -1.218073    0.621846    1.554089
      5         11           0        3.759691   -1.775555    0.014335
      6         11           0        1.173262   -0.246072   -0.038491
      7         11           0        2.629197    2.389067    0.008015
 ---------------------------------------------------------------------

 SCF Done:  E(UB3LYP) =  -1136.07999759     A.U. after   39 cycles

 The electronic state is 2-A.
 Alpha  occ. eigenvalues --  -38.46136 -38.44865 -38.44509 -38.44304 -38.44176
 Alpha  occ. eigenvalues --  -38.43689 -38.42986  -2.22113  -2.20650  -2.20385
 Alpha  occ. eigenvalues --   -2.20293  -2.20232  -2.19791  -2.19145  -1.15827
 Alpha  occ. eigenvalues --   -1.15762  -1.15759  -1.14354  -1.14302  -1.14279
 Alpha  occ. eigenvalues --   -1.14225  -1.14051  -1.14015  -1.13994  -1.13957
 Alpha  occ. eigenvalues --   -1.13952  -1.13915  -1.13867  -1.13808  -1.13515
 Alpha  occ. eigenvalues --   -1.13428  -1.13332  -1.12896  -1.12791  -1.12697
 Alpha  occ. eigenvalues --   -0.20118  -0.14519  -0.10908  -0.10765
 Alpha virt. eigenvalues --   -0.08012  -0.06063  -0.03503  -0.03280  -0.02830
 Alpha virt. eigenvalues --   -0.01773  -0.01709  -0.01505  -0.00627  -0.00474
 Alpha virt. eigenvalues --   -0.00106   0.00211   0.00516   0.00535   0.00622

  Beta  occ. eigenvalues --  -38.46108 -38.44869 -38.44533 -38.44228 -38.44145
  Beta  occ. eigenvalues --  -38.43607 -38.42967  -2.22071  -2.20656  -2.20338
  Beta  occ. eigenvalues --   -2.20250  -2.20185  -2.19646  -2.19116  -1.15808
  Beta  occ. eigenvalues --   -1.15733  -1.15663  -1.14358  -1.14305  -1.14286
  Beta  occ. eigenvalues --   -1.14161  -1.14044  -1.13984  -1.13958  -1.13943
  Beta  occ. eigenvalues --   -1.13921  -1.13857  -1.13820  -1.13721  -1.13418
  Beta  occ. eigenvalues --   -1.13335  -1.13200  -1.12888  -1.12717  -1.12685
  Beta  occ. eigenvalues --   -0.19218  -0.14362  -0.10762
  Beta virt. eigenvalues --   -0.07786  -0.06489  -0.05985  -0.03254  -0.02847
  Beta virt. eigenvalues --   -0.02781  -0.01626  -0.01033  -0.00933  -0.00476
  Beta virt. eigenvalues --   -0.00110   0.00015   0.00229   0.00564   0.00637

 Mulliken charges and spin densities:
               1          2
     1  Na  -0.621829   0.121747
     2  Na  -0.078120   0.364435
     3  Na   1.419231   0.238614
     4  Na  -0.546471   0.214643
     5  Na   0.929861  -0.019507
     6  Na  -1.918042   0.199449
     7  Na   0.815371  -0.119381
 Sum of Mulliken charges =  -0.00000   1.00000

 Dipole moment (field-independent basis, Debye):
    X=             -0.5476    Y=              0.5348    Z=             -0.3254  Tot=              0.8317
 Quadrupole moment (field-independent basis, Debye-Ang):
   XX=            -40.5411   YY=            -73.1466   ZZ=            -75.6361
   XY=              2.0858   XZ=              1.9010   YZ=             -0.4021

 Normal termination of Gaussian 16 at Mon Nov 13 18:55:07 2023.
