 Gaussian 16, Revision B.01,
 Gaussian 16:  ES64L-G16RevB.01 20-Dec-2017

 -------------------------
 #P B3LYP/6-311+g(d) force
 -------------------------

 ------------------------------
 Gaussian input prepared by ASE
 ------------------------------
 Symbolic Z-matrix:
 Charge =  0 Multiplicity = 2

                         Standard orientation:
 ---------------------------------------------------------------------
 Center     Atomic      Atomic             Coordinates (Angstroms)
 Number     Number       Type             X           Y           Z
 ---------------------------------------------------------------------
      1         11           0       -0.577069   -1.195188    1.199933
      2         11           0       -0.401372   -0.560378   -1.483852
      3         11           0       -2.976464   -0.446967   -0.203077
      4         11           0       -1.149875    1.721865    0.313630
      5         11           0        1.392478    0.711816    1.551721
      6         11           0        1.572828    1.344286   -1.131689
      7         11           0        2.139474   -1.575433   -0.246666
 ---------------------------------------------------------------------

 SCF Done:  E(UB3LYP) =  -1136.08117657     A.U. after   21 cycles

 The electronic state is 2-A.
 Alpha  occ. eigenvalues --  -38.44452 -38.44265 -38.44126 -38.43802 -38.43693
 Alpha  occ. eigenvalues --  -38.43246 -38.42721  -2.20489  -2.20455  -2.20424
 Alpha  occ. eigenvalues --   -2.19941  -2.19930  -2.19295  -2.18874  -1.14441
 Alpha  occ. eigenvalues --   -1.14346  -1.14276  -1.14221  -1.14156  -1.14145
 Alpha  occ. eigenvalues --   -1.14088  -1.14039  -1.13952  -1.13565  -1.13556
 Alpha  occ. eigenvalues --   -1.13530  -1.13502  -1.13483  -1.13478  -1.12982
 Alpha  occ. eigenvalues --   -1.12944  -1.12894  -1.12592  -1.12520  -1.12471
 Alpha  occ. eigenvalues --   -0.21525  -0.14376  -0.12670  -0.11919
 Alpha virt. eigenvalues --   -0.05721  -0.04161  -0.04069  -0.03609  -0.02801
 Alpha virt. eigenvalues --   -0.02732  -0.01400  -0.00402  -0.00286   0.00297
 Alpha virt. eigenvalues --    0.00706   0.00857   0.00994   0.01058   0.01071

  Beta  occ. eigenvalues --  -38.44448 -38.44197 -38.44053 -38.43761 -38.43639
  Beta  occ. eigenvalues --  -38.43235 -38.42703  -2.20480  -2.20336  -2.20299
  Beta  occ. eigenvalues --   -2.19867  -2.19841  -2.19280  -2.18850  -1.14392
  Beta  occ. eigenvalues --   -1.14272  -1.14181  -1.14153  -1.14122  -1.14101
  Beta  occ. eigenvalues --   -1.14031  -1.13956  -1.13879  -1.13499  -1.13493
  Beta  occ. eigenvalues --   -1.13473  -1.13442  -1.13419  -1.13380  -1.12975
  Beta  occ. eigenvalues --   -1.12907  -1.12872  -1.12581  -1.12476  -1.12433
  Beta  occ. eigenvalues --   -0.20681  -0.14113  -0.11681
  Beta virt. eigenvalues --   -0.08216  -0.05648  -0.04091  -0.03355  -0.03212
  Beta virt. eigenvalues --   -0.02040  -0.01805  -0.01336  -0.00384  -0.00038
  Beta virt. eigenvalues --    0.00332   0.00755   0.00864   0.01051   0.01120

 Mulliken charges and spin densities:
               1          2
     1  Na  -0.473713   0.312344
     2  Na  -0.150238   0.395135
     3  Na   1.005460  -0.009120
     4  Na  -0.861942   0.111644
     5  Na   0.637486   0.226238
     6  Na   0.145163   0.062880
     7  Na  -0.302218  -0.099122
 Sum of Mulliken charges =  -0.00000   1.00000

 Dipole moment (field-independent basis, Debye):
    X=             -0.1550    Y=              0.0140    Z=             -0.0378  Tot=              0.1601
 Quadrupole moment (field-independent basis, Debye-Ang):
   XX=            -55.1766   YY=            -74.8381   ZZ=            -66.1457
   XY=             -0.3621   XZ=             -0.2019   YZ=              0.0427

 Normal termination of Gaussian 16 at Mon Nov 13 19:02:41 2023.
