 Gaussian 16, Revision B.01,
 Gaussian 16:  ES64L-G16RevB.01 20-Dec-2017

 -------------------------
 #P B3LYP/6-311+g(d) force
 -------------------------

 ------------------------------
 Gaussian input prepared by ASE
 ------------------------------
 Symbolic Z-matrix:
 Charge =  0 Multiplicity = 2

                         Standard orientation:
 ---------------------------------------------------------------------
 Center     Atomic      Atomic             Coordinates (Angstroms)
 Number     Number       Type             X           Y           Z
 ---------------------------------------------------------------------
      1         11           0       -1.490224   -0.286121    1.496604
      2         11           0       -2.395722    2.273067    0.213473
      3         11           0       -2.662772   -2.112412   -0.573097
      4         11           0       -0.943177    0.202888   -1.399993
      5         11           0        3.035385    2.310390   -0.348111
      6         11           0        1.342549   -0.004726    0.536938
      7         11           0        3.113961   -2.383086    0.074187
 ---------------------------------------------------------------------

 SCF Done:  E(UB3LYP) =  -1136.08717732     A.U. after   29 cycles

 The electronic state is 2-A.
 Alpha  occ. eigenvalues --  -38.45206 -38.44866 -38.44462 -38.44297 -38.44006
 Alpha  occ. eigenvalues --  -38.43902 -38.43328  -2.20995  -2.20670  -2.20374
 Alpha  occ. eigenvalues --   -2.20340  -2.20093  -2.19803  -2.19387  -1.14687
 Alpha  occ. eigenvalues --   -1.14639  -1.14615  -1.14370  -1.14304  -1.14279
 Alpha  occ. eigenvalues --   -1.14215  -1.14137  -1.14050  -1.14031  -1.13948
 Alpha  occ. eigenvalues --   -1.13896  -1.13823  -1.13741  -1.13656  -1.13454
 Alpha  occ. eigenvalues --   -1.13431  -1.13403  -1.13094  -1.13048  -1.12986
 Alpha  occ. eigenvalues --   -0.18903  -0.14037  -0.11582  -0.10388
 Alpha virt. eigenvalues --   -0.07050  -0.06448  -0.03300  -0.03206  -0.02690
 Alpha virt. eigenvalues --   -0.02152  -0.01924  -0.01784  -0.00473  -0.00279
 Alpha virt. eigenvalues --    0.00025   0.00116   0.00179   0.00371   0.00786

  Beta  occ. eigenvalues --  -38.45177 -38.44815 -38.44466 -38.44260 -38.43960
  Beta  occ. eigenvalues --  -38.43881 -38.43308  -2.20941  -2.20575  -2.20354
  Beta  occ. eigenvalues --   -2.20303  -2.20008  -2.19767  -2.19359  -1.14651
  Beta  occ. eigenvalues --   -1.14599  -1.14577  -1.14308  -1.14236  -1.14214
  Beta  occ. eigenvalues --   -1.14192  -1.14105  -1.14025  -1.13984  -1.13950
  Beta  occ. eigenvalues --   -1.13870  -1.13764  -1.13682  -1.13608  -1.13413
  Beta  occ. eigenvalues --   -1.13398  -1.13380  -1.13083  -1.12996  -1.12944
  Beta  occ. eigenvalues --   -0.18438  -0.13626  -0.11275
  Beta virt. eigenvalues --   -0.07026  -0.06503  -0.06172  -0.03189  -0.02831
  Beta virt. eigenvalues --   -0.02428  -0.01919  -0.01551  -0.01007  -0.00396
  Beta virt. eigenvalues --   -0.00001   0.00061   0.00186   0.00291   0.00458

 Mulliken charges and spin densities:
               1          2
     1  Na  -0.196829   0.025547
     2  Na   0.573178   0.012936
     3  Na   0.446268   0.071295
     4  Na  -0.814008   0.296598
     5  Na   0.389451   0.195259
     6  Na  -0.701246   0.253400
     7  Na   0.303184   0.144965
 Sum of Mulliken charges =  -0.00000   1.00000

 Dipole moment (field-independent basis, Debye):
    X=              0.3345    Y=              0.0028    Z=             -0.1572  Tot=              0.3696
 Quadrupole moment (field-independent basis, Debye-Ang):
   XX=            -53.6669   YY=            -64.2467   ZZ=            -73.9761
   XY=             -2.3836   XZ=             -2.0827   YZ=             -0.0583

 Normal termination of Gaussian 16 at Mon Nov 13 18:28:26 2023.
