 Gaussian 16, Revision B.01,
 Gaussian 16:  ES64L-G16RevB.01 20-Dec-2017

 -------------------------
 #P B3LYP/6-311+g(d) force
 -------------------------

 ------------------------------
 Gaussian input prepared by ASE
 ------------------------------
 Symbolic Z-matrix:
 Charge =  0 Multiplicity = 2

                         Standard orientation:
 ---------------------------------------------------------------------
 Center     Atomic      Atomic             Coordinates (Angstroms)
 Number     Number       Type             X           Y           Z
 ---------------------------------------------------------------------
      1         11           0        0.029475    0.043174   -0.969831
      2         11           0       -2.510812   -1.525530   -1.286887
      3         11           0       -0.389865    3.013585   -0.880359
      4         11           0       -0.681592    1.381629    1.619053
      5         11           0       -1.027502   -1.583204    1.317901
      6         11           0        1.723513   -0.403074    1.464609
      7         11           0        2.856782   -0.926579   -1.264486
 ---------------------------------------------------------------------

 SCF Done:  E(UB3LYP) =  -1136.10031988     A.U. after   21 cycles

 The electronic state is 2-A.
 Alpha  occ. eigenvalues --  -38.43868 -38.43868 -38.43828 -38.43812 -38.43691
 Alpha  occ. eigenvalues --  -38.43400 -38.43046  -2.19908  -2.19885  -2.19775
 Alpha  occ. eigenvalues --   -2.19765  -2.19756  -2.19344  -2.19297  -1.13846
 Alpha  occ. eigenvalues --   -1.13659  -1.13619  -1.13605  -1.13571  -1.13564
 Alpha  occ. eigenvalues --   -1.13474  -1.13460  -1.13444  -1.13399  -1.13373
 Alpha  occ. eigenvalues --   -1.13365  -1.13334  -1.13330  -1.13270  -1.13093
 Alpha  occ. eigenvalues --   -1.13040  -1.12933  -1.12928  -1.12893  -1.12842
 Alpha  occ. eigenvalues --   -0.20033  -0.12822  -0.12780  -0.12351
 Alpha virt. eigenvalues --   -0.04981  -0.04433  -0.04364  -0.03464  -0.03117
 Alpha virt. eigenvalues --   -0.02992  -0.00881  -0.00843  -0.00677   0.00347
 Alpha virt. eigenvalues --    0.00718   0.00793   0.00820   0.00956   0.00973

  Beta  occ. eigenvalues --  -38.43839 -38.43838 -38.43785 -38.43762 -38.43653
  Beta  occ. eigenvalues --  -38.43384 -38.42995  -2.19835  -2.19802  -2.19718
  Beta  occ. eigenvalues --   -2.19711  -2.19695  -2.19272  -2.19254  -1.13772
  Beta  occ. eigenvalues --   -1.13606  -1.13564  -1.13556  -1.13515  -1.13493
  Beta  occ. eigenvalues --   -1.13420  -1.13409  -1.13389  -1.13358  -1.13335
  Beta  occ. eigenvalues --   -1.13328  -1.13288  -1.13275  -1.13201  -1.13049
  Beta  occ. eigenvalues --   -1.12955  -1.12908  -1.12888  -1.12855  -1.12794
  Beta  occ. eigenvalues --   -0.19099  -0.12549  -0.12197
  Beta virt. eigenvalues --   -0.08480  -0.04852  -0.04013  -0.03942  -0.02911
  Beta virt. eigenvalues --   -0.02682  -0.02340  -0.00812  -0.00657  -0.00428
  Beta virt. eigenvalues --    0.00383   0.00809   0.00878   0.00909   0.01033

 Mulliken charges and spin densities:
               1          2
     1  Na  -2.034642  -0.150989
     2  Na   0.503446   0.158593
     3  Na   0.503487   0.214945
     4  Na   0.242746   0.164814
     5  Na   0.044612   0.243768
     6  Na  -0.042310   0.177690
     7  Na   0.782661   0.191178
 Sum of Mulliken charges =  -0.00000   1.00000

 Dipole moment (field-independent basis, Debye):
    X=             -0.0096    Y=             -0.0556    Z=             -0.2763  Tot=              0.2820
 Quadrupole moment (field-independent basis, Debye-Ang):
   XX=            -64.8790   YY=            -68.7651   ZZ=            -60.5972
   XY=              0.1121   XZ=              0.0771   YZ=             -0.6953

 Normal termination of Gaussian 16 at Mon Nov 13 19:25:13 2023.
