 Gaussian 16, Revision B.01,
 Gaussian 16:  ES64L-G16RevB.01 20-Dec-2017

 -------------------------
 #P B3LYP/6-311+g(d) force
 -------------------------

 ------------------------------
 Gaussian input prepared by ASE
 ------------------------------
 Symbolic Z-matrix:
 Charge =  0 Multiplicity = 2

                         Standard orientation:
 ---------------------------------------------------------------------
 Center     Atomic      Atomic             Coordinates (Angstroms)
 Number     Number       Type             X           Y           Z
 ---------------------------------------------------------------------
      1         11           0       -0.265808    0.191140    2.266476
      2         11           0        1.539862   -1.851864    1.024399
      3         11           0       -3.940275   -0.530168   -0.757586
      4         11           0       -1.036537   -1.116468   -0.320800
      5         11           0        3.014174   -0.466586   -1.191550
      6         11           0        0.485542    1.048697   -1.747860
      7         11           0        0.203042    2.725249    0.726921
 ---------------------------------------------------------------------

 SCF Done:  E(UB3LYP) =  -1136.10056024     A.U. after   32 cycles

 The electronic state is 2-A.
 Alpha  occ. eigenvalues --  -38.45074 -38.45017 -38.44619 -38.44024 -38.43390
 Alpha  occ. eigenvalues --  -38.43292 -38.43122  -2.21078  -2.20820  -2.20512
 Alpha  occ. eigenvalues --   -2.20011  -2.19457  -2.19280  -2.19026  -1.14782
 Alpha  occ. eigenvalues --   -1.14711  -1.14691  -1.14514  -1.14451  -1.14445
 Alpha  occ. eigenvalues --   -1.14231  -1.14190  -1.14127  -1.13731  -1.13663
 Alpha  occ. eigenvalues --   -1.13620  -1.13222  -1.13111  -1.13086  -1.12953
 Alpha  occ. eigenvalues --   -1.12895  -1.12881  -1.12724  -1.12674  -1.12630
 Alpha  occ. eigenvalues --   -0.19383  -0.13181  -0.12687  -0.11939
 Alpha virt. eigenvalues --   -0.06418  -0.04357  -0.03916  -0.03656  -0.03244
 Alpha virt. eigenvalues --   -0.03063  -0.02088  -0.00665  -0.00480   0.00157
 Alpha virt. eigenvalues --    0.00267   0.00434   0.00787   0.00910   0.00950

  Beta  occ. eigenvalues --  -38.44982 -38.44970 -38.44599 -38.43987 -38.43372
  Beta  occ. eigenvalues --  -38.43270 -38.43101  -2.20892  -2.20758  -2.20477
  Beta  occ. eigenvalues --   -2.19942  -2.19432  -2.19243  -2.18990  -1.14656
  Beta  occ. eigenvalues --   -1.14567  -1.14562  -1.14468  -1.14408  -1.14403
  Beta  occ. eigenvalues --   -1.14190  -1.14171  -1.14104  -1.13687  -1.13613
  Beta  occ. eigenvalues --   -1.13569  -1.13169  -1.13084  -1.13076  -1.12902
  Beta  occ. eigenvalues --   -1.12870  -1.12852  -1.12680  -1.12649  -1.12610
  Beta  occ. eigenvalues --   -0.18609  -0.12719  -0.11684
  Beta virt. eigenvalues --   -0.08784  -0.06081  -0.03905  -0.03467  -0.03315
  Beta virt. eigenvalues --   -0.02836  -0.02428  -0.01814  -0.00457  -0.00408
  Beta virt. eigenvalues --    0.00197   0.00338   0.00542   0.00835   0.00986

 Mulliken charges and spin densities:
               1          2
     1  Na  -0.623175   0.454036
     2  Na   2.407843   0.072124
     3  Na   0.099971   0.058482
     4  Na  -1.675194   0.057013
     5  Na   0.063807  -0.019289
     6  Na  -0.150687   0.459512
     7  Na  -0.122565  -0.081879
 Sum of Mulliken charges =  -0.00000   1.00000

 Dipole moment (field-independent basis, Debye):
    X=             -0.2666    Y=              0.3464    Z=             -0.0279  Tot=              0.4380
 Quadrupole moment (field-independent basis, Debye-Ang):
   XX=            -55.0721   YY=            -75.5883   ZZ=            -64.5065
   XY=             -1.7164   XZ=              0.1370   YZ=              1.2857

 Normal termination of Gaussian 16 at Mon Nov 13 18:44:10 2023.
