 Gaussian 16, Revision B.01,
 Gaussian 16:  ES64L-G16RevB.01 20-Dec-2017

 -------------------------
 #P B3LYP/6-311+g(d) force
 -------------------------

 ------------------------------
 Gaussian input prepared by ASE
 ------------------------------
 Symbolic Z-matrix:
 Charge =  0 Multiplicity = 2

                         Standard orientation:
 ---------------------------------------------------------------------
 Center     Atomic      Atomic             Coordinates (Angstroms)
 Number     Number       Type             X           Y           Z
 ---------------------------------------------------------------------
      1         11           0        0.099179    0.265271   -1.684422
      2         11           0        1.412315   -1.901038   -0.575297
      3         11           0        2.791129    0.846726   -0.326082
      4         11           0        0.080614    2.021885    0.480842
      5         11           0        1.034022   -0.560260    1.814046
      6         11           0       -1.347826   -0.744220    0.425860
      7         11           0       -4.069433    0.071636   -0.134947
 ---------------------------------------------------------------------

 SCF Done:  E(UB3LYP) =  -1136.07687503     A.U. after   26 cycles

 The electronic state is 2-A.
 Alpha  occ. eigenvalues --  -38.45992 -38.44730 -38.44465 -38.44136 -38.43364
 Alpha  occ. eigenvalues --  -38.42879 -38.42757  -2.21781  -2.20939  -2.20495
 Alpha  occ. eigenvalues --   -2.20315  -2.19571  -2.19010  -2.18831  -1.15507
 Alpha  occ. eigenvalues --   -1.15422  -1.15401  -1.14755  -1.14628  -1.14565
 Alpha  occ. eigenvalues --   -1.14221  -1.14159  -1.14144  -1.14109  -1.13979
 Alpha  occ. eigenvalues --   -1.13867  -1.13285  -1.13219  -1.13100  -1.12705
 Alpha  occ. eigenvalues --   -1.12646  -1.12579  -1.12570  -1.12482  -1.12391
 Alpha  occ. eigenvalues --   -0.20981  -0.13931  -0.12147  -0.11552
 Alpha virt. eigenvalues --   -0.07388  -0.03671  -0.03524  -0.03465  -0.02694
 Alpha virt. eigenvalues --   -0.02495  -0.02426  -0.00631  -0.00465   0.00042
 Alpha virt. eigenvalues --    0.00328   0.00409   0.00475   0.00870   0.01091

  Beta  occ. eigenvalues --  -38.46005 -38.44648 -38.44443 -38.44044 -38.43336
  Beta  occ. eigenvalues --  -38.42853 -38.42735  -2.21805  -2.20793  -2.20462
  Beta  occ. eigenvalues --   -2.20150  -2.19528  -2.18968  -2.18799  -1.15525
  Beta  occ. eigenvalues --   -1.15435  -1.15417  -1.14666  -1.14507  -1.14463
  Beta  occ. eigenvalues --   -1.14189  -1.14094  -1.14083  -1.14038  -1.13867
  Beta  occ. eigenvalues --   -1.13748  -1.13264  -1.13119  -1.13076  -1.12677
  Beta  occ. eigenvalues --   -1.12589  -1.12556  -1.12531  -1.12407  -1.12374
  Beta  occ. eigenvalues --   -0.20084  -0.13764  -0.11282
  Beta virt. eigenvalues --   -0.07733  -0.07262  -0.03533  -0.03282  -0.02944
  Beta virt. eigenvalues --   -0.02531  -0.01767  -0.01461  -0.00605  -0.00182
  Beta virt. eigenvalues --    0.00072   0.00336   0.00460   0.00624   0.00921

 Mulliken charges and spin densities:
               1          2
     1  Na   0.097851   0.647414
     2  Na  -0.310351  -0.035998
     3  Na   0.242238  -0.010150
     4  Na  -0.422283  -0.029475
     5  Na   0.128566   0.303164
     6  Na  -0.324910   0.183459
     7  Na   0.588889  -0.058414
 Sum of Mulliken charges =  -0.00000   1.00000

 Dipole moment (field-independent basis, Debye):
    X=             -0.9088    Y=              0.3828    Z=             -0.0491  Tot=              0.9874
 Quadrupole moment (field-independent basis, Debye-Ang):
   XX=            -44.3700   YY=            -77.8261   ZZ=            -68.5983
   XY=             -1.2813   XZ=              0.7012   YZ=              1.2840

 Normal termination of Gaussian 16 at Mon Nov 13 19:00:52 2023.
