 Gaussian 16, Revision B.01,
 Gaussian 16:  ES64L-G16RevB.01 20-Dec-2017

 -------------------------
 #P B3LYP/6-311+g(d) force
 -------------------------

 ------------------------------
 Gaussian input prepared by ASE
 ------------------------------
 Symbolic Z-matrix:
 Charge =  0 Multiplicity = 2

                         Standard orientation:
 ---------------------------------------------------------------------
 Center     Atomic      Atomic             Coordinates (Angstroms)
 Number     Number       Type             X           Y           Z
 ---------------------------------------------------------------------
      1         11           0        0.353608   -0.256694   -1.454688
      2         11           0        0.736936   -1.331803    1.102782
      3         11           0        3.053326   -0.242977   -0.320126
      4         11           0        1.011821    1.717538    0.435540
      5         11           0       -1.445501    0.364997    1.690168
      6         11           0       -1.810739    1.431520   -0.897015
      7         11           0       -1.899451   -1.682581   -0.556661
 ---------------------------------------------------------------------

 SCF Done:  E(UB3LYP) =  -1136.08442117     A.U. after   23 cycles

 The electronic state is 2-A.
 Alpha  occ. eigenvalues --  -38.44416 -38.44301 -38.44162 -38.43562 -38.43372
 Alpha  occ. eigenvalues --  -38.43240 -38.42796  -2.20522  -2.20455  -2.20422
 Alpha  occ. eigenvalues --   -2.19667  -2.19574  -2.19301  -2.18953  -1.14409
 Alpha  occ. eigenvalues --   -1.14334  -1.14230  -1.14192  -1.14171  -1.14102
 Alpha  occ. eigenvalues --   -1.14052  -1.14028  -1.14014  -1.13345  -1.13300
 Alpha  occ. eigenvalues --   -1.13266  -1.13244  -1.13200  -1.13150  -1.12997
 Alpha  occ. eigenvalues --   -1.12926  -1.12872  -1.12677  -1.12596  -1.12524
 Alpha  occ. eigenvalues --   -0.21407  -0.14329  -0.12589  -0.11904
 Alpha virt. eigenvalues --   -0.05711  -0.04115  -0.04028  -0.03563  -0.02814
 Alpha virt. eigenvalues --   -0.02724  -0.01442  -0.00401  -0.00318   0.00298
 Alpha virt. eigenvalues --    0.00685   0.00900   0.00942   0.01054   0.01070

  Beta  occ. eigenvalues --  -38.44412 -38.44227 -38.44088 -38.43533 -38.43327
  Beta  occ. eigenvalues --  -38.43221 -38.42776  -2.20425  -2.20383  -2.20321
  Beta  occ. eigenvalues --   -2.19619  -2.19498  -2.19272  -2.18924  -1.14340
  Beta  occ. eigenvalues --   -1.14257  -1.14124  -1.14106  -1.14087  -1.14074
  Beta  occ. eigenvalues --   -1.14039  -1.13966  -1.13936  -1.13304  -1.13251
  Beta  occ. eigenvalues --   -1.13220  -1.13199  -1.13119  -1.13086  -1.12966
  Beta  occ. eigenvalues --   -1.12895  -1.12839  -1.12663  -1.12530  -1.12502
  Beta  occ. eigenvalues --   -0.20566  -0.14072  -0.11651
  Beta virt. eigenvalues --   -0.08160  -0.05627  -0.04043  -0.03379  -0.03177
  Beta virt. eigenvalues --   -0.02036  -0.01788  -0.01367  -0.00374  -0.00058
  Beta virt. eigenvalues --    0.00335   0.00736   0.00891   0.01045   0.01087

 Mulliken charges and spin densities:
               1          2
     1  Na  -0.101192   0.377975
     2  Na  -0.475185   0.296526
     3  Na   0.924422  -0.020910
     4  Na  -0.726371   0.147147
     5  Na   0.679126   0.279345
     6  Na   0.022621  -0.019735
     7  Na  -0.323421  -0.060349
 Sum of Mulliken charges =  -0.00000   1.00000

 Dipole moment (field-independent basis, Debye):
    X=              0.2102    Y=             -0.0017    Z=              0.1027  Tot=              0.2340
 Quadrupole moment (field-independent basis, Debye-Ang):
   XX=            -54.6049   YY=            -74.7702   ZZ=            -66.1260
   XY=             -0.0126   XZ=              0.0370   YZ=              0.3414

 Normal termination of Gaussian 16 at Mon Nov 13 19:20:59 2023.
