 Gaussian 16, Revision B.01,
 Gaussian 16:  ES64L-G16RevB.01 20-Dec-2017

 -------------------------
 #P B3LYP/6-311+g(d) force
 -------------------------

 ------------------------------
 Gaussian input prepared by ASE
 ------------------------------
 Symbolic Z-matrix:
 Charge =  0 Multiplicity = 2

                         Standard orientation:
 ---------------------------------------------------------------------
 Center     Atomic      Atomic             Coordinates (Angstroms)
 Number     Number       Type             X           Y           Z
 ---------------------------------------------------------------------
      1         11           0       -0.938081    0.726681    1.243142
      2         11           0        1.707606   -0.647284    1.645136
      3         11           0        0.634345    2.738420   -0.344778
      4         11           0        2.539064    0.510603   -0.990264
      5         11           0        1.112373   -2.123159   -0.895377
      6         11           0       -1.756000   -1.854036   -0.054760
      7         11           0       -3.299306    0.648775   -0.603099
 ---------------------------------------------------------------------

 SCF Done:  E(UB3LYP) =  -1136.10998587     A.U. after   20 cycles

 The electronic state is 2-A.
 Alpha  occ. eigenvalues --  -38.44687 -38.44103 -38.44029 -38.43810 -38.43668
 Alpha  occ. eigenvalues --  -38.43520 -38.43315  -2.20577  -2.20124  -2.20020
 Alpha  occ. eigenvalues --   -2.19782  -2.19556  -2.19502  -2.19416  -1.14306
 Alpha  occ. eigenvalues --   -1.14235  -1.14193  -1.13907  -1.13836  -1.13748
 Alpha  occ. eigenvalues --   -1.13704  -1.13688  -1.13597  -1.13520  -1.13491
 Alpha  occ. eigenvalues --   -1.13408  -1.13309  -1.13213  -1.13164  -1.13144
 Alpha  occ. eigenvalues --   -1.13123  -1.13112  -1.13067  -1.13045  -1.12992
 Alpha  occ. eigenvalues --   -0.19506  -0.14160  -0.12564  -0.11097
 Alpha virt. eigenvalues --   -0.06117  -0.05012  -0.04316  -0.03851  -0.02914
 Alpha virt. eigenvalues --   -0.02258  -0.01472  -0.00565  -0.00304  -0.00120
 Alpha virt. eigenvalues --    0.00089   0.00411   0.00664   0.00872   0.00906

  Beta  occ. eigenvalues --  -38.44675 -38.44036 -38.43990 -38.43803 -38.43660
  Beta  occ. eigenvalues --  -38.43499 -38.43262  -2.20553  -2.20007  -2.19949
  Beta  occ. eigenvalues --   -2.19773  -2.19544  -2.19465  -2.19326  -1.14292
  Beta  occ. eigenvalues --   -1.14214  -1.14175  -1.13843  -1.13730  -1.13676
  Beta  occ. eigenvalues --   -1.13643  -1.13634  -1.13529  -1.13511  -1.13482
  Beta  occ. eigenvalues --   -1.13378  -1.13289  -1.13192  -1.13153  -1.13122
  Beta  occ. eigenvalues --   -1.13096  -1.13066  -1.13002  -1.12960  -1.12938
  Beta  occ. eigenvalues --   -0.18810  -0.13906  -0.12356
  Beta virt. eigenvalues --   -0.07091  -0.05974  -0.04857  -0.04190  -0.03292
  Beta virt. eigenvalues --   -0.02269  -0.01400  -0.01215  -0.00517  -0.00189
  Beta virt. eigenvalues --    0.00093   0.00150   0.00473   0.00776   0.00907

 Mulliken charges and spin densities:
               1          2
     1  Na   0.498525   0.301623
     2  Na   0.177639  -0.014322
     3  Na  -0.291234   0.009162
     4  Na  -0.283271   0.377003
     5  Na   0.219862   0.205661
     6  Na  -0.662739   0.174655
     7  Na   0.341217  -0.053782
 Sum of Mulliken charges =  -0.00000   1.00000

 Dipole moment (field-independent basis, Debye):
    X=             -0.5034    Y=              0.1938    Z=             -0.3376  Tot=              0.6364
 Quadrupole moment (field-independent basis, Debye-Ang):
   XX=            -57.7900   YY=            -67.9641   ZZ=            -71.0199
   XY=             -1.5897   XZ=              2.7742   YZ=             -1.3751

 Normal termination of Gaussian 16 at Mon Nov 13 16:12:51 2023.
