 Gaussian 16, Revision B.01,
 Gaussian 16:  ES64L-G16RevB.01 20-Dec-2017

 -------------------------
 #P B3LYP/6-311+g(d) force
 -------------------------

 ------------------------------
 Gaussian input prepared by ASE
 ------------------------------
 Symbolic Z-matrix:
 Charge =  0 Multiplicity = 2

                         Standard orientation:
 ---------------------------------------------------------------------
 Center     Atomic      Atomic             Coordinates (Angstroms)
 Number     Number       Type             X           Y           Z
 ---------------------------------------------------------------------
      1         11           0       -0.818109    0.388307   -1.125858
      2         11           0        1.084009   -1.930063   -1.289224
      3         11           0       -3.389307   -0.477695    0.152159
      4         11           0       -0.786925   -1.665074    1.043915
      5         11           0        3.157885   -0.410428    0.263193
      6         11           0        0.713710    0.915587    1.400792
      7         11           0        0.038737    3.179367   -0.444978
 ---------------------------------------------------------------------

 SCF Done:  E(UB3LYP) =  -1136.10448373     A.U. after   19 cycles

 The electronic state is 2-A.
 Alpha  occ. eigenvalues --  -38.44865 -38.44838 -38.43623 -38.43580 -38.43246
 Alpha  occ. eigenvalues --  -38.43225 -38.43046  -2.20747  -2.20713  -2.19703
 Alpha  occ. eigenvalues --   -2.19578  -2.19319  -2.19234  -2.19138  -1.14454
 Alpha  occ. eigenvalues --   -1.14431  -1.14428  -1.14392  -1.14359  -1.14323
 Alpha  occ. eigenvalues --   -1.13532  -1.13429  -1.13310  -1.13280  -1.13185
 Alpha  occ. eigenvalues --   -1.13152  -1.13127  -1.13002  -1.12939  -1.12931
 Alpha  occ. eigenvalues --   -1.12849  -1.12848  -1.12748  -1.12732  -1.12706
 Alpha  occ. eigenvalues --   -0.19760  -0.13452  -0.12543  -0.11093
 Alpha virt. eigenvalues --   -0.06358  -0.04735  -0.03747  -0.03308  -0.02987
 Alpha virt. eigenvalues --   -0.02207  -0.02129  -0.00802  -0.00156   0.00225
 Alpha virt. eigenvalues --    0.00344   0.00480   0.00681   0.00731   0.01088

  Beta  occ. eigenvalues --  -38.44857 -38.44838 -38.43582 -38.43530 -38.43238
  Beta  occ. eigenvalues --  -38.43170 -38.42994  -2.20736  -2.20715  -2.19634
  Beta  occ. eigenvalues --   -2.19489  -2.19222  -2.19146  -2.19123  -1.14433
  Beta  occ. eigenvalues --   -1.14431  -1.14417  -1.14378  -1.14349  -1.14323
  Beta  occ. eigenvalues --   -1.13485  -1.13352  -1.13258  -1.13203  -1.13124
  Beta  occ. eigenvalues --   -1.13085  -1.13068  -1.12948  -1.12879  -1.12870
  Beta  occ. eigenvalues --   -1.12794  -1.12765  -1.12733  -1.12695  -1.12663
  Beta  occ. eigenvalues --   -0.19010  -0.13226  -0.12327
  Beta virt. eigenvalues --   -0.07025  -0.06247  -0.04605  -0.03607  -0.02649
  Beta virt. eigenvalues --   -0.02373  -0.02076  -0.01215  -0.00704   0.00084
  Beta virt. eigenvalues --    0.00274   0.00339   0.00499   0.00747   0.00836

 Mulliken charges and spin densities:
               1          2
     1  Na  -0.663348   0.160701
     2  Na   0.186796   0.224334
     3  Na   0.187330   0.007233
     4  Na   0.200366   0.309839
     5  Na   0.033373   0.035566
     6  Na  -0.455373   0.202466
     7  Na   0.510858   0.059861
 Sum of Mulliken charges =  -0.00000   1.00000

 Dipole moment (field-independent basis, Debye):
    X=             -0.0731    Y=             -0.0610    Z=              0.0201  Tot=              0.0973
 Quadrupole moment (field-independent basis, Debye-Ang):
   XX=            -52.0197   YY=            -66.9536   ZZ=            -72.8207
   XY=             -0.1715   XZ=             -0.2420   YZ=             -0.6979

 Normal termination of Gaussian 16 at Mon Nov 13 18:47:25 2023.
