 Gaussian 16, Revision B.01,
 Gaussian 16:  ES64L-G16RevB.01 20-Dec-2017

 -------------------------
 #P B3LYP/6-311+g(d) force
 -------------------------

 ------------------------------
 Gaussian input prepared by ASE
 ------------------------------
 Symbolic Z-matrix:
 Charge =  0 Multiplicity = 2

                         Standard orientation:
 ---------------------------------------------------------------------
 Center     Atomic      Atomic             Coordinates (Angstroms)
 Number     Number       Type             X           Y           Z
 ---------------------------------------------------------------------
      1         11           0       -0.243506    0.114450    2.094392
      2         11           0       -0.835708    2.260834   -0.093649
      3         11           0        3.945409    0.097318   -0.109527
      4         11           0        1.040163    0.199343   -0.380296
      5         11           0       -2.498951   -0.251402    0.451562
      6         11           0       -1.183071   -0.161360   -2.031435
      7         11           0       -0.224336   -2.259184    0.068953
 ---------------------------------------------------------------------

 SCF Done:  E(UB3LYP) =  -1136.07896936     A.U. after   27 cycles

 The electronic state is 2-A.
 Alpha  occ. eigenvalues --  -38.45089 -38.45063 -38.44816 -38.44352 -38.43249
 Alpha  occ. eigenvalues --  -38.42543 -38.42497  -2.21183  -2.20943  -2.20876
 Alpha  occ. eigenvalues --   -2.20500  -2.19590  -2.18609  -2.18565  -1.14985
 Alpha  occ. eigenvalues --   -1.14890  -1.14748  -1.14727  -1.14697  -1.14595
 Alpha  occ. eigenvalues --   -1.14515  -1.14506  -1.14472  -1.14173  -1.14116
 Alpha  occ. eigenvalues --   -1.14048  -1.13301  -1.13273  -1.13249  -1.12332
 Alpha  occ. eigenvalues --   -1.12273  -1.12245  -1.12193  -1.12188  -1.12164
 Alpha  occ. eigenvalues --   -0.21015  -0.13089  -0.12772  -0.11940
 Alpha virt. eigenvalues --   -0.06594  -0.03934  -0.03455  -0.03164  -0.02977
 Alpha virt. eigenvalues --   -0.02906  -0.01975  -0.00492  -0.00361   0.00175
 Alpha virt. eigenvalues --    0.00379   0.00521   0.00576   0.00850   0.01139

  Beta  occ. eigenvalues --  -38.45102 -38.44955 -38.44718 -38.44323 -38.43217
  Beta  occ. eigenvalues --  -38.42531 -38.42485  -2.20989  -2.20901  -2.20765
  Beta  occ. eigenvalues --   -2.20455  -2.19542  -2.18594  -2.18550  -1.14866
  Beta  occ. eigenvalues --   -1.14743  -1.14651  -1.14611  -1.14584  -1.14559
  Beta  occ. eigenvalues --   -1.14529  -1.14524  -1.14341  -1.14110  -1.14042
  Beta  occ. eigenvalues --   -1.14025  -1.13274  -1.13249  -1.13148  -1.12327
  Beta  occ. eigenvalues --   -1.12268  -1.12189  -1.12179  -1.12158  -1.12129
  Beta  occ. eigenvalues --   -0.20055  -0.12957  -0.11575
  Beta virt. eigenvalues --   -0.08430  -0.06410  -0.03501  -0.02993  -0.02814
  Beta virt. eigenvalues --   -0.02357  -0.02052  -0.01896  -0.00338  -0.00212
  Beta virt. eigenvalues --    0.00219   0.00503   0.00547   0.00653   0.00901

 Mulliken charges and spin densities:
               1          2
     1  Na   0.047962   0.445474
     2  Na  -0.723437  -0.020832
     3  Na   0.462140  -0.142587
     4  Na   0.094789   0.385640
     5  Na   0.444241   0.185221
     6  Na   0.031784   0.153656
     7  Na  -0.357478  -0.006572
 Sum of Mulliken charges =  -0.00000   1.00000

 Dipole moment (field-independent basis, Debye):
    X=              0.3131    Y=             -0.1002    Z=              0.1348  Tot=              0.3553
 Quadrupole moment (field-independent basis, Debye-Ang):
   XX=            -54.1545   YY=            -74.4747   ZZ=            -63.8196
   XY=             -0.3042   XZ=              0.5422   YZ=             -0.8870

 Normal termination of Gaussian 16 at Mon Nov 13 20:18:49 2023.
