 Gaussian 16, Revision B.01,
 Gaussian 16:  ES64L-G16RevB.01 20-Dec-2017

 -------------------------
 #P B3LYP/6-311+g(d) force
 -------------------------

 ------------------------------
 Gaussian input prepared by ASE
 ------------------------------
 Symbolic Z-matrix:
 Charge =  0 Multiplicity = 2

                         Standard orientation:
 ---------------------------------------------------------------------
 Center     Atomic      Atomic             Coordinates (Angstroms)
 Number     Number       Type             X           Y           Z
 ---------------------------------------------------------------------
      1         11           0       -0.230166   -0.006316   -1.111083
      2         11           0       -0.506343    2.527126    0.492664
      3         11           0       -3.225336   -0.182517   -0.998612
      4         11           0       -1.581697   -1.328236    1.223899
      5         11           0        1.011626    0.164953    1.574224
      6         11           0        1.881781   -1.998633   -0.320461
      7         11           0        2.650135    0.823623   -0.860630
 ---------------------------------------------------------------------

 SCF Done:  E(UB3LYP) =  -1136.10618722     A.U. after   21 cycles

 The electronic state is 2-A.
 Alpha  occ. eigenvalues --  -38.44465 -38.44213 -38.43564 -38.43430 -38.43182
 Alpha  occ. eigenvalues --  -38.43159 -38.42618  -2.20367  -2.20218  -2.19637
 Alpha  occ. eigenvalues --   -2.19566  -2.19470  -2.19160  -2.18544  -1.14093
 Alpha  occ. eigenvalues --   -1.14045  -1.13989  -1.13959  -1.13899  -1.13804
 Alpha  occ. eigenvalues --   -1.13526  -1.13343  -1.13286  -1.13277  -1.13159
 Alpha  occ. eigenvalues --   -1.13146  -1.13132  -1.13099  -1.13046  -1.12826
 Alpha  occ. eigenvalues --   -1.12792  -1.12758  -1.12253  -1.12206  -1.12124
 Alpha  occ. eigenvalues --   -0.20184  -0.14116  -0.11803  -0.11637
 Alpha virt. eigenvalues --   -0.05862  -0.04470  -0.04073  -0.03270  -0.02646
 Alpha virt. eigenvalues --   -0.02372  -0.01751  -0.00689  -0.00447   0.00287
 Alpha virt. eigenvalues --    0.00426   0.00612   0.00813   0.00963   0.00980

  Beta  occ. eigenvalues --  -38.44435 -38.44185 -38.43525 -38.43353 -38.43151
  Beta  occ. eigenvalues --  -38.43140 -38.42609  -2.20311  -2.20168  -2.19512
  Beta  occ. eigenvalues --   -2.19493  -2.19399  -2.19150  -2.18532  -1.14057
  Beta  occ. eigenvalues --   -1.14000  -1.13956  -1.13922  -1.13848  -1.13767
  Beta  occ. eigenvalues --   -1.13447  -1.13262  -1.13219  -1.13190  -1.13103
  Beta  occ. eigenvalues --   -1.13090  -1.13050  -1.13023  -1.12993  -1.12815
  Beta  occ. eigenvalues --   -1.12774  -1.12724  -1.12244  -1.12173  -1.12121
  Beta  occ. eigenvalues --   -0.19416  -0.13792  -0.11539
  Beta virt. eigenvalues --   -0.07553  -0.05690  -0.04320  -0.03649  -0.03098
  Beta virt. eigenvalues --   -0.01833  -0.01603  -0.01445  -0.00647  -0.00156
  Beta virt. eigenvalues --    0.00325   0.00480   0.00656   0.00869   0.01000

 Mulliken charges and spin densities:
               1          2
     1  Na  -1.520058   0.243370
     2  Na  -0.349479  -0.046401
     3  Na   0.801649   0.134565
     4  Na  -0.138653   0.034907
     5  Na   0.175775   0.425134
     6  Na   0.349148   0.192426
     7  Na   0.681618   0.016000
 Sum of Mulliken charges =  -0.00000   1.00000

 Dipole moment (field-independent basis, Debye):
    X=             -0.1955    Y=              0.1307    Z=             -0.1294  Tot=              0.2684
 Quadrupole moment (field-independent basis, Debye-Ang):
   XX=            -53.4394   YY=            -70.5359   ZZ=            -68.6283
   XY=             -0.3350   XZ=             -0.4503   YZ=             -1.0424

 Normal termination of Gaussian 16 at Mon Nov 13 17:34:32 2023.
