 Gaussian 16, Revision B.01,
 Gaussian 16:  ES64L-G16RevB.01 20-Dec-2017

 -------------------------
 #P B3LYP/6-311+g(d) force
 -------------------------

 ------------------------------
 Gaussian input prepared by ASE
 ------------------------------
 Symbolic Z-matrix:
 Charge =  0 Multiplicity = 2

                         Standard orientation:
 ---------------------------------------------------------------------
 Center     Atomic      Atomic             Coordinates (Angstroms)
 Number     Number       Type             X           Y           Z
 ---------------------------------------------------------------------
      1         11           0        0.441061   -0.005525   -1.351856
      2         11           0        2.250811   -2.126006   -0.240158
      3         11           0        2.232715    2.128786   -0.235902
      4         11           0        1.138343   -0.006604    1.561269
      5         11           0       -1.857512   -0.034891    1.816769
      6         11           0       -2.126302   -1.470517   -0.805922
      7         11           0       -2.079116    1.514757   -0.744201
 ---------------------------------------------------------------------

 SCF Done:  E(UB3LYP) =  -1136.10349723     A.U. after   22 cycles

 The electronic state is 2-A.
 Alpha  occ. eigenvalues --  -38.44569 -38.44107 -38.44043 -38.43833 -38.43480
 Alpha  occ. eigenvalues --  -38.43465 -38.43318  -2.20576  -2.20096  -2.20030
 Alpha  occ. eigenvalues --   -2.19928  -2.19533  -2.19372  -2.19357  -1.14285
 Alpha  occ. eigenvalues --   -1.14275  -1.14200  -1.13919  -1.13754  -1.13725
 Alpha  occ. eigenvalues --   -1.13707  -1.13686  -1.13668  -1.13605  -1.13560
 Alpha  occ. eigenvalues --   -1.13555  -1.13252  -1.13222  -1.13182  -1.13038
 Alpha  occ. eigenvalues --   -1.13022  -1.12992  -1.12971  -1.12955  -1.12939
 Alpha  occ. eigenvalues --   -0.19964  -0.14120  -0.12198  -0.11386
 Alpha virt. eigenvalues --   -0.05455  -0.05193  -0.04461  -0.03535  -0.02746
 Alpha virt. eigenvalues --   -0.02542  -0.01367  -0.00890  -0.00344   0.00358
 Alpha virt. eigenvalues --    0.00574   0.00589   0.00683   0.00836   0.00842

  Beta  occ. eigenvalues --  -38.44492 -38.44083 -38.44021 -38.43776 -38.43481
  Beta  occ. eigenvalues --  -38.43466 -38.43260  -2.20434  -2.20058  -2.19995
  Beta  occ. eigenvalues --   -2.19826  -2.19433  -2.19376  -2.19360  -1.14205
  Beta  occ. eigenvalues --   -1.14159  -1.14104  -1.13874  -1.13715  -1.13686
  Beta  occ. eigenvalues --   -1.13670  -1.13627  -1.13615  -1.13533  -1.13518
  Beta  occ. eigenvalues --   -1.13497  -1.13191  -1.13177  -1.13116  -1.13029
  Beta  occ. eigenvalues --   -1.13013  -1.12967  -1.12961  -1.12952  -1.12920
  Beta  occ. eigenvalues --   -0.19174  -0.13967  -0.11170
  Beta virt. eigenvalues --   -0.07906  -0.05291  -0.05155  -0.03728  -0.03023
  Beta virt. eigenvalues --   -0.02065  -0.01907  -0.01278  -0.00841  -0.00036
  Beta virt. eigenvalues --    0.00388   0.00563   0.00632   0.00715   0.00920

 Mulliken charges and spin densities:
               1          2
     1  Na  -0.678666  -0.074933
     2  Na  -0.012184   0.162229
     3  Na   0.048876   0.157894
     4  Na   0.629791  -0.050480
     5  Na  -0.276443   0.461074
     6  Na   0.194446   0.155479
     7  Na   0.094181   0.188736
 Sum of Mulliken charges =  -0.00000   1.00000

 Dipole moment (field-independent basis, Debye):
    X=             -0.4253    Y=             -0.0087    Z=              0.0754  Tot=              0.4320
 Quadrupole moment (field-independent basis, Debye-Ang):
   XX=            -57.1144   YY=            -70.4650   ZZ=            -67.6433
   XY=              0.0810   XZ=              0.0525   YZ=              0.1668

 Normal termination of Gaussian 16 at Mon Nov 13 17:23:20 2023.
