 Gaussian 16, Revision B.01,
 Gaussian 16:  ES64L-G16RevB.01 20-Dec-2017

 -------------------------
 #P B3LYP/6-311+g(d) force
 -------------------------

 ------------------------------
 Gaussian input prepared by ASE
 ------------------------------
 Symbolic Z-matrix:
 Charge =  0 Multiplicity = 2

                         Standard orientation:
 ---------------------------------------------------------------------
 Center     Atomic      Atomic             Coordinates (Angstroms)
 Number     Number       Type             X           Y           Z
 ---------------------------------------------------------------------
      1         11           0        1.013421   -1.461684   -0.419603
      2         11           0       -0.002076   -0.069456    2.040216
      3         11           0        3.716614   -0.187673   -0.205378
      4         11           0        1.252289    1.512221   -0.176557
      5         11           0       -1.501032    2.382552   -0.995551
      6         11           0       -2.651490    0.140622    0.637128
      7         11           0       -1.827726   -2.316581   -0.880256
 ---------------------------------------------------------------------

 SCF Done:  E(UB3LYP) =  -1136.10585565     A.U. after   22 cycles

 The electronic state is 2-A.
 Alpha  occ. eigenvalues --  -38.45206 -38.44529 -38.44173 -38.43581 -38.43547
 Alpha  occ. eigenvalues --  -38.43450 -38.43344  -2.21095  -2.20511  -2.20191
 Alpha  occ. eigenvalues --   -2.19648  -2.19612  -2.19351  -2.19247  -1.14798
 Alpha  occ. eigenvalues --   -1.14767  -1.14710  -1.14254  -1.14185  -1.14168
 Alpha  occ. eigenvalues --   -1.13940  -1.13790  -1.13776  -1.13450  -1.13339
 Alpha  occ. eigenvalues --   -1.13305  -1.13292  -1.13268  -1.13188  -1.13016
 Alpha  occ. eigenvalues --   -1.12985  -1.12947  -1.12915  -1.12884  -1.12844
 Alpha  occ. eigenvalues --   -0.19598  -0.14312  -0.12211  -0.11040
 Alpha virt. eigenvalues --   -0.06633  -0.04948  -0.04167  -0.03676  -0.02730
 Alpha virt. eigenvalues --   -0.02341  -0.02088  -0.00851  -0.00264   0.00062
 Alpha virt. eigenvalues --    0.00157   0.00249   0.00599   0.00866   0.00936

  Beta  occ. eigenvalues --  -38.45204 -38.44514 -38.44057 -38.43564 -38.43533
  Beta  occ. eigenvalues --  -38.43429 -38.43319  -2.21091  -2.20491  -2.19979
  Beta  occ. eigenvalues --   -2.19624  -2.19591  -2.19313  -2.19201  -1.14796
  Beta  occ. eigenvalues --   -1.14766  -1.14698  -1.14197  -1.14166  -1.14154
  Beta  occ. eigenvalues --   -1.13806  -1.13647  -1.13637  -1.13432  -1.13325
  Beta  occ. eigenvalues --   -1.13286  -1.13233  -1.13208  -1.13172  -1.12991
  Beta  occ. eigenvalues --   -1.12958  -1.12915  -1.12883  -1.12855  -1.12808
  Beta  occ. eigenvalues --   -0.18883  -0.14045  -0.11927
  Beta virt. eigenvalues --   -0.07231  -0.06443  -0.04842  -0.03822  -0.02974
  Beta virt. eigenvalues --   -0.02279  -0.02140  -0.01213  -0.00789  -0.00063
  Beta virt. eigenvalues --    0.00105   0.00253   0.00307   0.00789   0.00875

 Mulliken charges and spin densities:
               1          2
     1  Na  -1.481592   0.298123
     2  Na   0.502586   0.030394
     3  Na   0.931831  -0.140567
     4  Na  -0.823198   0.411496
     5  Na   0.244280  -0.180259
     6  Na   0.016683   0.596074
     7  Na   0.609411  -0.015261
 Sum of Mulliken charges =  -0.00000   1.00000

 Dipole moment (field-independent basis, Debye):
    X=              0.9175    Y=             -0.0953    Z=              0.1509  Tot=              0.9347
 Quadrupole moment (field-independent basis, Debye-Ang):
   XX=            -49.3992   YY=            -73.3056   ZZ=            -71.8285
   XY=             -0.2845   XZ=             -0.0554   YZ=             -0.0166

 Normal termination of Gaussian 16 at Mon Nov 13 16:20:57 2023.
