 Gaussian 16, Revision B.01,
 Gaussian 16:  ES64L-G16RevB.01 20-Dec-2017

 -------------------------
 #P B3LYP/6-311+g(d) force
 -------------------------

 ------------------------------
 Gaussian input prepared by ASE
 ------------------------------
 Symbolic Z-matrix:
 Charge =  0 Multiplicity = 2

                         Standard orientation:
 ---------------------------------------------------------------------
 Center     Atomic      Atomic             Coordinates (Angstroms)
 Number     Number       Type             X           Y           Z
 ---------------------------------------------------------------------
      1         11           0        0.985210   -0.990671   -0.635348
      2         11           0       -0.181300   -2.780564    1.469163
      3         11           0       -1.883842   -1.846987   -0.814771
      4         11           0       -3.102525    0.876517   -0.455352
      5         11           0       -1.137904    2.956020    0.455306
      6         11           0        1.555974    1.651169    0.663697
      7         11           0        3.764387    0.134517   -0.682695
 ---------------------------------------------------------------------

 SCF Done:  E(UB3LYP) =  -1136.10732459     A.U. after   23 cycles

 The electronic state is 2-A.
 Alpha  occ. eigenvalues --  -38.44150 -38.44089 -38.44061 -38.43985 -38.43927
 Alpha  occ. eigenvalues --  -38.43912 -38.43500  -2.20158  -2.20068  -2.19982
 Alpha  occ. eigenvalues --   -2.19960  -2.19915  -2.19807  -2.19394  -1.14004
 Alpha  occ. eigenvalues --   -1.13918  -1.13871  -1.13781  -1.13752  -1.13683
 Alpha  occ. eigenvalues --   -1.13677  -1.13655  -1.13621  -1.13612  -1.13601
 Alpha  occ. eigenvalues --   -1.13577  -1.13526  -1.13512  -1.13505  -1.13475
 Alpha  occ. eigenvalues --   -1.13435  -1.13392  -1.13054  -1.13018  -1.13015
 Alpha  occ. eigenvalues --   -0.18479  -0.14238  -0.13439  -0.10390
 Alpha virt. eigenvalues --   -0.06051  -0.05432  -0.04930  -0.03223  -0.03071
 Alpha virt. eigenvalues --   -0.02031  -0.01663  -0.00904  -0.00653  -0.00418
 Alpha virt. eigenvalues --   -0.00109   0.00266   0.00673   0.00749   0.00833

  Beta  occ. eigenvalues --  -38.44092 -38.44082 -38.44023 -38.43961 -38.43901
  Beta  occ. eigenvalues --  -38.43877 -38.43476  -2.20147  -2.19960  -2.19928
  Beta  occ. eigenvalues --   -2.19903  -2.19873  -2.19745  -2.19353  -1.13987
  Beta  occ. eigenvalues --   -1.13881  -1.13851  -1.13719  -1.13698  -1.13628
  Beta  occ. eigenvalues --   -1.13623  -1.13592  -1.13587  -1.13579  -1.13567
  Beta  occ. eigenvalues --   -1.13531  -1.13494  -1.13464  -1.13453  -1.13430
  Beta  occ. eigenvalues --   -1.13393  -1.13336  -1.13014  -1.12994  -1.12981
  Beta  occ. eigenvalues --   -0.18033  -0.13691  -0.13036
  Beta virt. eigenvalues --   -0.06941  -0.05692  -0.05250  -0.04608  -0.02838
  Beta virt. eigenvalues --   -0.02595  -0.01789  -0.01259  -0.00744  -0.00506
  Beta virt. eigenvalues --   -0.00148   0.00165   0.00388   0.00773   0.00835

 Mulliken charges and spin densities:
               1          2
     1  Na  -2.318001   0.041514
     2  Na   0.239734   0.193094
     3  Na   2.240141   0.365053
     4  Na  -0.626901   0.216189
     5  Na   0.191132  -0.106307
     6  Na  -0.340394   0.311066
     7  Na   0.614290  -0.020609
 Sum of Mulliken charges =  -0.00000   1.00000

 Dipole moment (field-independent basis, Debye):
    X=              0.6866    Y=             -0.5488    Z=              0.5182  Tot=              1.0204
 Quadrupole moment (field-independent basis, Debye-Ang):
   XX=            -61.5340   YY=            -67.0459   ZZ=            -70.2070
   XY=              0.4870   XZ=             -0.9299   YZ=             -1.1131

 Normal termination of Gaussian 16 at Mon Nov 13 14:57:10 2023.
