 Gaussian 16, Revision B.01,
 Gaussian 16:  ES64L-G16RevB.01 20-Dec-2017

 -------------------------
 #P B3LYP/6-311+g(d) force
 -------------------------

 ------------------------------
 Gaussian input prepared by ASE
 ------------------------------
 Symbolic Z-matrix:
 Charge =  0 Multiplicity = 2

                         Standard orientation:
 ---------------------------------------------------------------------
 Center     Atomic      Atomic             Coordinates (Angstroms)
 Number     Number       Type             X           Y           Z
 ---------------------------------------------------------------------
      1         11           0        0.139842   -0.202025   -1.558128
      2         11           0        0.688258   -2.401083    0.291830
      3         11           0       -2.181796   -1.487909   -0.255122
      4         11           0       -2.149994    1.529989    0.255726
      5         11           0        0.146208    0.202402    1.559437
      6         11           0        0.740376    2.386277   -0.293581
      7         11           0        2.617105   -0.027651   -0.000161
 ---------------------------------------------------------------------

 SCF Done:  E(UB3LYP) =  -1136.10564298     A.U. after   20 cycles

 The electronic state is 2-A.
 Alpha  occ. eigenvalues --  -38.43520 -38.43466 -38.43461 -38.43365 -38.43361
 Alpha  occ. eigenvalues --  -38.43301 -38.43300  -2.19607  -2.19563  -2.19558
 Alpha  occ. eigenvalues --   -2.19479  -2.19466  -2.19433  -2.19425  -1.13601
 Alpha  occ. eigenvalues --   -1.13475  -1.13451  -1.13366  -1.13309  -1.13281
 Alpha  occ. eigenvalues --   -1.13248  -1.13222  -1.13157  -1.13148  -1.13118
 Alpha  occ. eigenvalues --   -1.13114  -1.13068  -1.13059  -1.13025  -1.13022
 Alpha  occ. eigenvalues --   -1.13014  -1.12976  -1.12967  -1.12966  -1.12945
 Alpha  occ. eigenvalues --   -0.20996  -0.13559  -0.13343  -0.11376
 Alpha virt. eigenvalues --   -0.04968  -0.04664  -0.04590  -0.03183  -0.03101
 Alpha virt. eigenvalues --   -0.02251  -0.01053  -0.00864   0.00016   0.00350
 Alpha virt. eigenvalues --    0.00476   0.00545   0.01015   0.01064   0.01087

  Beta  occ. eigenvalues --  -38.43507 -38.43456 -38.43451 -38.43350 -38.43346
  Beta  occ. eigenvalues --  -38.43219 -38.43218  -2.19579  -2.19474  -2.19458
  Beta  occ. eigenvalues --   -2.19435  -2.19413  -2.19404  -2.19389  -1.13555
  Beta  occ. eigenvalues --   -1.13420  -1.13398  -1.13299  -1.13256  -1.13248
  Beta  occ. eigenvalues --   -1.13218  -1.13166  -1.13133  -1.13098  -1.13075
  Beta  occ. eigenvalues --   -1.13068  -1.13028  -1.13019  -1.12976  -1.12975
  Beta  occ. eigenvalues --   -1.12944  -1.12943  -1.12932  -1.12911  -1.12887
  Beta  occ. eigenvalues --   -0.20237  -0.13215  -0.13004
  Beta virt. eigenvalues --   -0.07249  -0.04995  -0.04639  -0.04587  -0.02287
  Beta virt. eigenvalues --   -0.02214  -0.01178  -0.00984  -0.00806   0.00141
  Beta virt. eigenvalues --    0.00375   0.00436   0.00499   0.01043   0.01065

 Mulliken charges and spin densities:
               1          2
     1  Na  -0.745032   0.480733
     2  Na   0.344919   0.029681
     3  Na   0.202797  -0.003226
     4  Na   0.205983  -0.002880
     5  Na  -0.743492   0.482304
     6  Na   0.346474   0.029462
     7  Na   0.388351  -0.016074
 Sum of Mulliken charges =  -0.00000   1.00000

 Dipole moment (field-independent basis, Debye):
    X=             -0.1349    Y=              0.0011    Z=              0.0012  Tot=              0.1350
 Quadrupole moment (field-independent basis, Debye-Ang):
   XX=            -59.7267   YY=            -62.5423   ZZ=            -72.7191
   XY=             -0.0078   XZ=             -0.0106   YZ=             -0.7563

 Normal termination of Gaussian 16 at Mon Nov 13 20:00:08 2023.
