 Gaussian 16, Revision B.01,
 Gaussian 16:  ES64L-G16RevB.01 20-Dec-2017

 -------------------------
 #P B3LYP/6-311+g(d) force
 -------------------------

 ------------------------------
 Gaussian input prepared by ASE
 ------------------------------
 Symbolic Z-matrix:
 Charge =  0 Multiplicity = 2

                         Standard orientation:
 ---------------------------------------------------------------------
 Center     Atomic      Atomic             Coordinates (Angstroms)
 Number     Number       Type             X           Y           Z
 ---------------------------------------------------------------------
      1         11           0        0.620667    0.018589   -1.592060
      2         11           0        0.623229    1.371159    0.812021
      3         11           0        3.026988   -0.000043   -0.001546
      4         11           0        0.623201   -1.388519    0.780338
      5         11           0       -1.632804    1.388606   -0.779507
      6         11           0       -1.630315   -0.019171    1.592543
      7         11           0       -1.630966   -1.370622   -0.811790
 ---------------------------------------------------------------------

 SCF Done:  E(UB3LYP) =  -1136.03911786     A.U. after   21 cycles

 The electronic state is 2-A.
 Alpha  occ. eigenvalues --  -38.45093 -38.44882 -38.44690 -38.43970 -38.43943
 Alpha  occ. eigenvalues --  -38.43613 -38.43579  -2.21363  -2.21267  -2.20718
 Alpha  occ. eigenvalues --   -2.20240  -2.20180  -2.19985  -2.19916  -1.15287
 Alpha  occ. eigenvalues --   -1.15145  -1.15086  -1.15071  -1.14987  -1.14892
 Alpha  occ. eigenvalues --   -1.14478  -1.14349  -1.14334  -1.14084  -1.14006
 Alpha  occ. eigenvalues --   -1.13971  -1.13869  -1.13819  -1.13782  -1.13600
 Alpha  occ. eigenvalues --   -1.13559  -1.13517  -1.13464  -1.13446  -1.13316
 Alpha  occ. eigenvalues --   -0.22393  -0.14580  -0.13325  -0.11868
 Alpha virt. eigenvalues --   -0.05942  -0.04270  -0.03911  -0.03631  -0.02792
 Alpha virt. eigenvalues --   -0.02534  -0.01445  -0.00405  -0.00162   0.00263
 Alpha virt. eigenvalues --    0.00696   0.00934   0.01044   0.01077   0.01113

  Beta  occ. eigenvalues --  -38.45019 -38.44797 -38.44688 -38.43937 -38.43911
  Beta  occ. eigenvalues --  -38.43573 -38.43540  -2.21233  -2.21118  -2.20717
  Beta  occ. eigenvalues --   -2.20187  -2.20129  -2.19921  -2.19854  -1.15211
  Beta  occ. eigenvalues --   -1.15055  -1.14971  -1.14955  -1.14895  -1.14787
  Beta  occ. eigenvalues --   -1.14464  -1.14337  -1.14324  -1.14041  -1.13971
  Beta  occ. eigenvalues --   -1.13941  -1.13817  -1.13735  -1.13698  -1.13566
  Beta  occ. eigenvalues --   -1.13463  -1.13439  -1.13418  -1.13409  -1.13259
  Beta  occ. eigenvalues --   -0.21492  -0.14352  -0.11588
  Beta virt. eigenvalues --   -0.08692  -0.05852  -0.03640  -0.03498  -0.03224
  Beta virt. eigenvalues --   -0.02013  -0.01838  -0.01391  -0.00153  -0.00116
  Beta virt. eigenvalues --    0.00301   0.00756   0.01100   0.01119   0.01123

 Mulliken charges and spin densities:
               1          2
     1  Na  -0.369756   0.154387
     2  Na  -0.500416   0.350520
     3  Na   0.951544  -0.036727
     4  Na  -0.489278   0.355889
     5  Na   0.106793   0.081648
     6  Na   0.200771   0.015956
     7  Na   0.100342   0.078327
 Sum of Mulliken charges =  -0.00000   1.00000

 Dipole moment (field-independent basis, Debye):
    X=              0.4714    Y=              0.0018    Z=              0.0189  Tot=              0.4718
 Quadrupole moment (field-independent basis, Debye-Ang):
   XX=            -54.9277   YY=            -78.1767   ZZ=            -64.0829
   XY=             -0.0036   XZ=              0.1071   YZ=             -0.3075

 Normal termination of Gaussian 16 at Mon Nov 13 20:33:40 2023.
