 Gaussian 16, Revision B.01,
 Gaussian 16:  ES64L-G16RevB.01 20-Dec-2017

 -------------------------
 #P B3LYP/6-311+g(d) force
 -------------------------

 ------------------------------
 Gaussian input prepared by ASE
 ------------------------------
 Symbolic Z-matrix:
 Charge =  0 Multiplicity = 2

                         Standard orientation:
 ---------------------------------------------------------------------
 Center     Atomic      Atomic             Coordinates (Angstroms)
 Number     Number       Type             X           Y           Z
 ---------------------------------------------------------------------
      1         11           0        0.294728   -0.081284    1.296170
      2         11           0       -0.360102    2.191340   -0.553666
      3         11           0        2.496071    1.521571    0.052248
      4         11           0        2.653673   -1.469066    0.089528
      5         11           0       -0.068505   -1.880166   -1.084804
      6         11           0       -2.331592    0.075722   -1.376431
      7         11           0       -2.684273   -0.358118    1.576955
 ---------------------------------------------------------------------

 SCF Done:  E(UB3LYP) =  -1136.10682422     A.U. after   20 cycles

 The electronic state is 2-A.
 Alpha  occ. eigenvalues --  -38.44752 -38.44230 -38.43908 -38.43826 -38.43605
 Alpha  occ. eigenvalues --  -38.43321 -38.43002  -2.20675  -2.20240  -2.19888
 Alpha  occ. eigenvalues --   -2.19817  -2.19797  -2.19311  -2.18989  -1.14390
 Alpha  occ. eigenvalues --   -1.14358  -1.14260  -1.13945  -1.13896  -1.13845
 Alpha  occ. eigenvalues --   -1.13753  -1.13621  -1.13592  -1.13552  -1.13505
 Alpha  occ. eigenvalues --   -1.13446  -1.13391  -1.13367  -1.13350  -1.12983
 Alpha  occ. eigenvalues --   -1.12947  -1.12908  -1.12675  -1.12632  -1.12600
 Alpha  occ. eigenvalues --   -0.19980  -0.14485  -0.11953  -0.11640
 Alpha virt. eigenvalues --   -0.06170  -0.04861  -0.04393  -0.03566  -0.02657
 Alpha virt. eigenvalues --   -0.02497  -0.01931  -0.00549  -0.00342   0.00242
 Alpha virt. eigenvalues --    0.00420   0.00470   0.00657   0.00928   0.00952

  Beta  occ. eigenvalues --  -38.44684 -38.44186 -38.43909 -38.43827 -38.43553
  Beta  occ. eigenvalues --  -38.43287 -38.42982  -2.20551  -2.20162  -2.19890
  Beta  occ. eigenvalues --   -2.19806  -2.19723  -2.19250  -2.18955  -1.14294
  Beta  occ. eigenvalues --   -1.14273  -1.14176  -1.13879  -1.13839  -1.13776
  Beta  occ. eigenvalues --   -1.13729  -1.13618  -1.13576  -1.13536  -1.13456
  Beta  occ. eigenvalues --   -1.13429  -1.13371  -1.13344  -1.13300  -1.12945
  Beta  occ. eigenvalues --   -1.12896  -1.12852  -1.12656  -1.12604  -1.12556
  Beta  occ. eigenvalues --   -0.19301  -0.14218  -0.11788
  Beta virt. eigenvalues --   -0.07465  -0.06065  -0.04702  -0.03835  -0.03346
  Beta virt. eigenvalues --   -0.01949  -0.01890  -0.01445  -0.00483  -0.00035
  Beta virt. eigenvalues --    0.00293   0.00430   0.00496   0.00851   0.00947

 Mulliken charges and spin densities:
               1          2
     1  Na  -1.368190  -0.006593
     2  Na  -0.416291   0.368888
     3  Na   0.573230  -0.030001
     4  Na   1.182567   0.041155
     5  Na  -0.622582   0.319831
     6  Na   0.702970   0.108625
     7  Na  -0.051704   0.198096
 Sum of Mulliken charges =  -0.00000   1.00000

 Dipole moment (field-independent basis, Debye):
    X=             -0.2143    Y=             -0.1119    Z=             -0.1111  Tot=              0.2661
 Quadrupole moment (field-independent basis, Debye-Ang):
   XX=            -51.4142   YY=            -74.2184   ZZ=            -69.9174
   XY=             -0.1003   XZ=             -0.5800   YZ=             -0.8336

 Normal termination of Gaussian 16 at Mon Nov 13 16:05:46 2023.
