 Gaussian 16, Revision B.01,
 Gaussian 16:  ES64L-G16RevB.01 20-Dec-2017

 -------------------------
 #P B3LYP/6-311+g(d) force
 -------------------------

 ------------------------------
 Gaussian input prepared by ASE
 ------------------------------
 Symbolic Z-matrix:
 Charge =  0 Multiplicity = 2

                         Standard orientation:
 ---------------------------------------------------------------------
 Center     Atomic      Atomic             Coordinates (Angstroms)
 Number     Number       Type             X           Y           Z
 ---------------------------------------------------------------------
      1         11           0       -1.788293    2.466213   -0.994058
      2         11           0       -1.849427   -2.014385   -1.647086
      3         11           0       -2.226465   -0.364159    2.354564
      4         11           0       -0.374449    0.012607    0.014262
      5         11           0        2.086212    1.523491    0.836121
      6         11           0        2.131790   -0.166457   -1.630324
      7         11           0        2.020632   -1.457309    1.066521
 ---------------------------------------------------------------------

 SCF Done:  E(UB3LYP) =  -1136.09899399     A.U. after   27 cycles

 The electronic state is 2-A.
 Alpha  occ. eigenvalues --  -38.45270 -38.44740 -38.44063 -38.43962 -38.43767
 Alpha  occ. eigenvalues --  -38.43396 -38.41915  -2.21077  -2.20724  -2.20047
 Alpha  occ. eigenvalues --   -2.19769  -2.19749  -2.19201  -2.18228  -1.14776
 Alpha  occ. eigenvalues --   -1.14691  -1.14677  -1.14485  -1.14361  -1.14338
 Alpha  occ. eigenvalues --   -1.13812  -1.13683  -1.13657  -1.13485  -1.13454
 Alpha  occ. eigenvalues --   -1.13400  -1.13396  -1.13385  -1.13311  -1.12923
 Alpha  occ. eigenvalues --   -1.12840  -1.12818  -1.11976  -1.11930  -1.11802
 Alpha  occ. eigenvalues --   -0.19010  -0.13366  -0.11767  -0.10849
 Alpha virt. eigenvalues --   -0.05667  -0.05005  -0.04870  -0.03151  -0.02467
 Alpha virt. eigenvalues --   -0.02318  -0.01470  -0.01075  -0.00779   0.00251
 Alpha virt. eigenvalues --    0.00342   0.00426   0.00545   0.00813   0.00856

  Beta  occ. eigenvalues --  -38.45200 -38.44710 -38.44042 -38.43934 -38.43756
  Beta  occ. eigenvalues --  -38.43384 -38.41883  -2.20947  -2.20669  -2.20010
  Beta  occ. eigenvalues --   -2.19733  -2.19717  -2.19180  -2.18185  -1.14685
  Beta  occ. eigenvalues --   -1.14600  -1.14590  -1.14454  -1.14314  -1.14296
  Beta  occ. eigenvalues --   -1.13785  -1.13650  -1.13624  -1.13454  -1.13439
  Beta  occ. eigenvalues --   -1.13369  -1.13357  -1.13349  -1.13299  -1.12907
  Beta  occ. eigenvalues --   -1.12819  -1.12805  -1.11917  -1.11834  -1.11788
  Beta  occ. eigenvalues --   -0.18251  -0.13074  -0.10645
  Beta virt. eigenvalues --   -0.07910  -0.04953  -0.04899  -0.04613  -0.02771
  Beta virt. eigenvalues --   -0.02018  -0.01772  -0.01384  -0.00712  -0.00557
  Beta virt. eigenvalues --    0.00326   0.00476   0.00507   0.00641   0.00847

 Mulliken charges and spin densities:
               1          2
     1  Na   0.530973  -0.209302
     2  Na   0.421763   0.197350
     3  Na   0.334397   0.548499
     4  Na  -1.168353   0.688736
     5  Na  -0.011890  -0.030946
     6  Na   0.056967  -0.486000
     7  Na  -0.163858   0.291663
 Sum of Mulliken charges =  -0.00000   1.00000

 Dipole moment (field-independent basis, Debye):
    X=              0.1682    Y=             -0.2822    Z=              0.3049  Tot=              0.4482
 Quadrupole moment (field-independent basis, Debye-Ang):
   XX=            -57.9951   YY=            -73.7045   ZZ=            -59.1527
   XY=              0.5201   XZ=             -1.4330   YZ=             -0.6733

 Normal termination of Gaussian 16 at Mon Nov 13 20:27:04 2023.
