 Gaussian 16, Revision B.01,
 Gaussian 16:  ES64L-G16RevB.01 20-Dec-2017

 -------------------------
 #P B3LYP/6-311+g(d) force
 -------------------------

 ------------------------------
 Gaussian input prepared by ASE
 ------------------------------
 Symbolic Z-matrix:
 Charge =  0 Multiplicity = 2

                         Standard orientation:
 ---------------------------------------------------------------------
 Center     Atomic      Atomic             Coordinates (Angstroms)
 Number     Number       Type             X           Y           Z
 ---------------------------------------------------------------------
      1         11           0       -4.022776   -0.984929   -0.645893
      2         11           0       -1.025972   -1.031104   -0.796095
      3         11           0       -0.972353    3.729356    1.098037
      4         11           0        0.104612    1.747193   -0.876374
      5         11           0       -0.021690   -2.803656    1.405661
      6         11           0        1.604236   -0.443061    0.520924
      7         11           0        4.333943   -0.213799   -0.706260
 ---------------------------------------------------------------------

 SCF Done:  E(UB3LYP) =  -1136.09418269     A.U. after   21 cycles

 The electronic state is 2-A.
 Alpha  occ. eigenvalues --  -38.44592 -38.44463 -38.44461 -38.44256 -38.44089
 Alpha  occ. eigenvalues --  -38.43883 -38.43305  -2.20392  -2.20375  -2.20285
 Alpha  occ. eigenvalues --   -2.20082  -2.20031  -2.19932  -2.19372  -1.14112
 Alpha  occ. eigenvalues --   -1.14108  -1.14035  -1.14031  -1.14017  -1.14003
 Alpha  occ. eigenvalues --   -1.13980  -1.13913  -1.13901  -1.13849  -1.13774
 Alpha  occ. eigenvalues --   -1.13710  -1.13700  -1.13693  -1.13619  -1.13597
 Alpha  occ. eigenvalues --   -1.13548  -1.13517  -1.13066  -1.13013  -1.12976
 Alpha  occ. eigenvalues --   -0.18222  -0.13195  -0.12912  -0.10802
 Alpha virt. eigenvalues --   -0.07245  -0.04809  -0.03722  -0.03548  -0.03358
 Alpha virt. eigenvalues --   -0.02317  -0.01441  -0.01176  -0.00924  -0.00343
 Alpha virt. eigenvalues --   -0.00278  -0.00105   0.00417   0.00584   0.00691

  Beta  occ. eigenvalues --  -38.44575 -38.44394 -38.44392 -38.44191 -38.44093
  Beta  occ. eigenvalues --  -38.43877 -38.43293  -2.20361  -2.20250  -2.20156
  Beta  occ. eigenvalues --   -2.20038  -2.19959  -2.19929  -2.19359  -1.14092
  Beta  occ. eigenvalues --   -1.14023  -1.14013  -1.14010  -1.13939  -1.13928
  Beta  occ. eigenvalues --   -1.13897  -1.13847  -1.13823  -1.13812  -1.13700
  Beta  occ. eigenvalues --   -1.13695  -1.13627  -1.13619  -1.13614  -1.13564
  Beta  occ. eigenvalues --   -1.13542  -1.13504  -1.13066  -1.12977  -1.12933
  Beta  occ. eigenvalues --   -0.17864  -0.12515  -0.12246
  Beta virt. eigenvalues --   -0.07652  -0.06825  -0.04536  -0.03530  -0.03147
  Beta virt. eigenvalues --   -0.03088  -0.01992  -0.01166  -0.01005  -0.00541
  Beta virt. eigenvalues --   -0.00117  -0.00083   0.00127   0.00494   0.00622

 Mulliken charges and spin densities:
               1          2
     1  Na   0.215266   0.267304
     2  Na  -0.791106   0.123422
     3  Na  -0.050359   0.076032
     4  Na   0.243278  -0.059206
     5  Na   0.401246   0.230265
     6  Na   0.039181   0.081131
     7  Na  -0.057506   0.281052
 Sum of Mulliken charges =  -0.00000   1.00000

 Dipole moment (field-independent basis, Debye):
    X=             -0.5900    Y=              0.0057    Z=              1.1407  Tot=              1.2843
 Quadrupole moment (field-independent basis, Debye-Ang):
   XX=            -62.5205   YY=            -64.7650   ZZ=            -67.2137
   XY=             -2.3302   XZ=             -4.2950   YZ=              0.6018

 Normal termination of Gaussian 16 at Mon Nov 13 19:07:19 2023.
