 Gaussian 16, Revision B.01,
 Gaussian 16:  ES64L-G16RevB.01 20-Dec-2017

 -------------------------
 #P B3LYP/6-311+g(d) force
 -------------------------

 ------------------------------
 Gaussian input prepared by ASE
 ------------------------------
 Symbolic Z-matrix:
 Charge =  0 Multiplicity = 2

                         Standard orientation:
 ---------------------------------------------------------------------
 Center     Atomic      Atomic             Coordinates (Angstroms)
 Number     Number       Type             X           Y           Z
 ---------------------------------------------------------------------
      1         11           0        0.023199   -0.344752   -1.802141
      2         11           0       -1.498996    1.944918   -0.602173
      3         11           0       -2.051822   -1.939359   -0.329059
      4         11           0       -1.533490    0.125591    1.784889
      5         11           0        1.484780    1.970139   -0.570110
      6         11           0        1.470635    0.141232    1.811029
      7         11           0        2.105695   -1.897770   -0.292435
 ---------------------------------------------------------------------

 SCF Done:  E(UB3LYP) =  -1136.11159280     A.U. after   20 cycles

 The electronic state is 2-A.
 Alpha  occ. eigenvalues --  -38.44394 -38.44364 -38.44109 -38.43489 -38.43489
 Alpha  occ. eigenvalues --  -38.43355 -38.43344  -2.20403  -2.20370  -2.20231
 Alpha  occ. eigenvalues --   -2.19397  -2.19389  -2.19358  -2.19339  -1.14200
 Alpha  occ. eigenvalues --   -1.14071  -1.14046  -1.14025  -1.14001  -1.13937
 Alpha  occ. eigenvalues --   -1.13934  -1.13917  -1.13879  -1.13153  -1.13088
 Alpha  occ. eigenvalues --   -1.13085  -1.13066  -1.13064  -1.13028  -1.13011
 Alpha  occ. eigenvalues --   -1.12988  -1.12982  -1.12976  -1.12972  -1.12841
 Alpha  occ. eigenvalues --   -0.20080  -0.13006  -0.12828  -0.12384
 Alpha virt. eigenvalues --   -0.04757  -0.04594  -0.04222  -0.03997  -0.03532
 Alpha virt. eigenvalues --   -0.03404  -0.00785  -0.00736  -0.00291   0.00396
 Alpha virt. eigenvalues --    0.00669   0.00771   0.00809   0.00945   0.01070

  Beta  occ. eigenvalues --  -38.44323 -38.44296 -38.44027 -38.43484 -38.43484
  Beta  occ. eigenvalues --  -38.43342 -38.43332  -2.20275  -2.20246  -2.20085
  Beta  occ. eigenvalues --   -2.19391  -2.19384  -2.19339  -2.19321  -1.14088
  Beta  occ. eigenvalues --   -1.13987  -1.13962  -1.13946  -1.13921  -1.13833
  Beta  occ. eigenvalues --   -1.13830  -1.13813  -1.13782  -1.13135  -1.13066
  Beta  occ. eigenvalues --   -1.13064  -1.13056  -1.13053  -1.12992  -1.12985
  Beta  occ. eigenvalues --   -1.12978  -1.12972  -1.12968  -1.12954  -1.12834
  Beta  occ. eigenvalues --   -0.19254  -0.12847  -0.12077
  Beta virt. eigenvalues --   -0.08589  -0.04739  -0.04488  -0.03490  -0.03423
  Beta virt. eigenvalues --   -0.02745  -0.02663  -0.00797  -0.00671  -0.00061
  Beta virt. eigenvalues --    0.00426   0.00709   0.00812   0.00823   0.01033

 Mulliken charges and spin densities:
               1          2
     1  Na  -0.195496   0.356676
     2  Na   0.092221   0.056948
     3  Na  -0.105702  -0.060332
     4  Na   0.101939   0.323821
     5  Na   0.081948   0.053882
     6  Na   0.108762   0.329095
     7  Na  -0.083672  -0.060090
 Sum of Mulliken charges =  -0.00000   1.00000

 Dipole moment (field-independent basis, Debye):
    X=              0.0045    Y=             -0.1559    Z=              0.2019  Tot=              0.2551
 Quadrupole moment (field-independent basis, Debye-Ang):
   XX=            -65.1686   YY=            -68.3212   ZZ=            -64.5521
   XY=             -0.0129   XZ=             -0.0039   YZ=              0.3168

 Normal termination of Gaussian 16 at Mon Nov 13 18:45:14 2023.
