 Gaussian 16, Revision B.01,
 Gaussian 16:  ES64L-G16RevB.01 20-Dec-2017

 -------------------------
 #P B3LYP/6-311+g(d) force
 -------------------------

 ------------------------------
 Gaussian input prepared by ASE
 ------------------------------
 Symbolic Z-matrix:
 Charge =  0 Multiplicity = 2

                         Standard orientation:
 ---------------------------------------------------------------------
 Center     Atomic      Atomic             Coordinates (Angstroms)
 Number     Number       Type             X           Y           Z
 ---------------------------------------------------------------------
      1         11           0        0.039926   -2.600000   -1.486932
      2         11           0       -1.155703   -0.866588    2.449592
      3         11           0       -3.592995    1.895274   -0.610237
      4         11           0       -1.933600   -0.599642   -0.432909
      5         11           0        0.951501   -0.417811    0.360332
      6         11           0        1.823772    2.378936   -0.293665
      7         11           0        3.867100    0.209832    0.013819
 ---------------------------------------------------------------------

 SCF Done:  E(UB3LYP) =  -1136.09766451     A.U. after   24 cycles

 The electronic state is 2-A.
 Alpha  occ. eigenvalues --  -38.45368 -38.45011 -38.44695 -38.43388 -38.43281
 Alpha  occ. eigenvalues --  -38.43276 -38.42851  -2.21249  -2.20881  -2.20612
 Alpha  occ. eigenvalues --   -2.19466  -2.19200  -2.19191  -2.18940  -1.14974
 Alpha  occ. eigenvalues --   -1.14918  -1.14872  -1.14600  -1.14514  -1.14473
 Alpha  occ. eigenvalues --   -1.14318  -1.14255  -1.14173  -1.13221  -1.13171
 Alpha  occ. eigenvalues --   -1.13117  -1.12955  -1.12887  -1.12835  -1.12825
 Alpha  occ. eigenvalues --   -1.12812  -1.12777  -1.12630  -1.12603  -1.12485
 Alpha  occ. eigenvalues --   -0.18576  -0.14303  -0.11552  -0.11221
 Alpha virt. eigenvalues --   -0.06470  -0.05206  -0.04066  -0.03562  -0.02610
 Alpha virt. eigenvalues --   -0.02301  -0.02122  -0.00978  -0.00576  -0.00347
 Alpha virt. eigenvalues --    0.00010   0.00162   0.00649   0.00734   0.00844

  Beta  occ. eigenvalues --  -38.45369 -38.45014 -38.44581 -38.43363 -38.43258
  Beta  occ. eigenvalues --  -38.43227 -38.42830  -2.21251  -2.20888  -2.20403
  Beta  occ. eigenvalues --   -2.19434  -2.19154  -2.19102  -2.18910  -1.14976
  Beta  occ. eigenvalues --   -1.14923  -1.14869  -1.14605  -1.14513  -1.14479
  Beta  occ. eigenvalues --   -1.14177  -1.14108  -1.14034  -1.13205  -1.13124
  Beta  occ. eigenvalues --   -1.13058  -1.12919  -1.12829  -1.12803  -1.12793
  Beta  occ. eigenvalues --   -1.12751  -1.12719  -1.12596  -1.12549  -1.12462
  Beta  occ. eigenvalues --   -0.17948  -0.14045  -0.11181
  Beta virt. eigenvalues --   -0.07275  -0.06411  -0.04991  -0.03732  -0.03101
  Beta virt. eigenvalues --   -0.02192  -0.02044  -0.01513  -0.00835  -0.00291
  Beta virt. eigenvalues --   -0.00177   0.00093   0.00198   0.00735   0.00854

 Mulliken charges and spin densities:
               1          2
     1  Na   0.212434   0.107447
     2  Na   1.258357   0.204547
     3  Na   0.365811   0.026254
     4  Na  -0.382481   0.214194
     5  Na  -1.537444   0.893002
     6  Na   0.042182  -0.186543
     7  Na   0.041142  -0.258901
 Sum of Mulliken charges =  -0.00000   1.00000

 Dipole moment (field-independent basis, Debye):
    X=              2.3480    Y=              0.1650    Z=              0.3783  Tot=              2.3840
 Quadrupole moment (field-independent basis, Debye-Ang):
   XX=            -57.0160   YY=            -66.3520   ZZ=            -70.1703
   XY=              0.2971   XZ=             -2.0708   YZ=             -1.0593

 Normal termination of Gaussian 16 at Mon Nov 13 17:48:02 2023.
