 Gaussian 16, Revision B.01,
 Gaussian 16:  ES64L-G16RevB.01 20-Dec-2017

 -------------------------
 #P B3LYP/6-311+g(d) force
 -------------------------

 ------------------------------
 Gaussian input prepared by ASE
 ------------------------------
 Symbolic Z-matrix:
 Charge =  0 Multiplicity = 2

                         Standard orientation:
 ---------------------------------------------------------------------
 Center     Atomic      Atomic             Coordinates (Angstroms)
 Number     Number       Type             X           Y           Z
 ---------------------------------------------------------------------
      1         11           0       -1.038955    1.406396    0.442416
      2         11           0        1.459578   -1.200066   -1.270634
      3         11           0        1.592224    1.786318   -0.964658
      4         11           0        3.037080    0.005774    0.970118
      5         11           0        0.290240   -1.080981    1.487147
      6         11           0       -1.516734   -1.232503   -0.896524
      7         11           0       -3.823434    0.315062    0.232135
 ---------------------------------------------------------------------

 SCF Done:  E(UB3LYP) =  -1136.09392257     A.U. after   29 cycles

 The electronic state is 2-A.
 Alpha  occ. eigenvalues --  -38.45711 -38.45166 -38.43756 -38.43692 -38.43342
 Alpha  occ. eigenvalues --  -38.43323 -38.43070  -2.21582  -2.21151  -2.19816
 Alpha  occ. eigenvalues --   -2.19776  -2.19452  -2.19404  -2.19070  -1.15287
 Alpha  occ. eigenvalues --   -1.15255  -1.15202  -1.14869  -1.14822  -1.14763
 Alpha  occ. eigenvalues --   -1.13667  -1.13509  -1.13478  -1.13477  -1.13420
 Alpha  occ. eigenvalues --   -1.13345  -1.13226  -1.13138  -1.13060  -1.13048
 Alpha  occ. eigenvalues --   -1.12995  -1.12957  -1.12728  -1.12708  -1.12677
 Alpha  occ. eigenvalues --   -0.20341  -0.14921  -0.11577  -0.11272
 Alpha virt. eigenvalues --   -0.07457  -0.04562  -0.04163  -0.03216  -0.02908
 Alpha virt. eigenvalues --   -0.02261  -0.02116  -0.00801  -0.00441   0.00029
 Alpha virt. eigenvalues --    0.00252   0.00404   0.00458   0.00918   0.00963

  Beta  occ. eigenvalues --  -38.45722 -38.45132 -38.43724 -38.43645 -38.43300
  Beta  occ. eigenvalues --  -38.43291 -38.43035  -2.21604  -2.21093  -2.19762
  Beta  occ. eigenvalues --   -2.19693  -2.19370  -2.19355  -2.19010  -1.15302
  Beta  occ. eigenvalues --   -1.15266  -1.15215  -1.14838  -1.14750  -1.14721
  Beta  occ. eigenvalues --   -1.13631  -1.13438  -1.13436  -1.13429  -1.13355
  Beta  occ. eigenvalues --   -1.13284  -1.13163  -1.13080  -1.13023  -1.12964
  Beta  occ. eigenvalues --   -1.12950  -1.12920  -1.12684  -1.12675  -1.12604
  Beta  occ. eigenvalues --   -0.19557  -0.14786  -0.11031
  Beta virt. eigenvalues --   -0.07362  -0.07268  -0.04470  -0.03571  -0.02983
  Beta virt. eigenvalues --   -0.02811  -0.01622  -0.01150  -0.00602  -0.00235
  Beta virt. eigenvalues --    0.00074   0.00260   0.00413   0.00570   0.00975

 Mulliken charges and spin densities:
               1          2
     1  Na  -0.624542   0.081666
     2  Na   0.257242   0.375913
     3  Na  -0.027336   0.065478
     4  Na   0.273127   0.038095
     5  Na  -0.066544   0.370300
     6  Na  -0.421985   0.109488
     7  Na   0.610039  -0.040940
 Sum of Mulliken charges =  -0.00000   1.00000

 Dipole moment (field-independent basis, Debye):
    X=             -0.8754    Y=             -0.2991    Z=              0.2137  Tot=              0.9495
 Quadrupole moment (field-independent basis, Debye-Ang):
   XX=            -43.6722   YY=            -79.5798   ZZ=            -69.8545
   XY=             -0.1612   XZ=              0.2989   YZ=              0.2275

 Normal termination of Gaussian 16 at Mon Nov 13 17:01:42 2023.
