 Gaussian 16, Revision B.01,
 Gaussian 16:  ES64L-G16RevB.01 20-Dec-2017

 -------------------------
 #P B3LYP/6-311+g(d) force
 -------------------------

 ------------------------------
 Gaussian input prepared by ASE
 ------------------------------
 Symbolic Z-matrix:
 Charge =  0 Multiplicity = 2

                         Standard orientation:
 ---------------------------------------------------------------------
 Center     Atomic      Atomic             Coordinates (Angstroms)
 Number     Number       Type             X           Y           Z
 ---------------------------------------------------------------------
      1         11           0        0.040288   -1.753427   -1.372604
      2         11           0        1.067896    2.189767   -0.117902
      3         11           0        2.526804   -0.069447   -1.443928
      4         11           0        2.428565    0.102193    1.548490
      5         11           0       -0.155016   -1.427258    1.600911
      6         11           0       -1.462557    0.569233   -0.213999
      7         11           0       -4.445980    0.388939   -0.000967
 ---------------------------------------------------------------------

 SCF Done:  E(UB3LYP) =  -1136.09470434     A.U. after   26 cycles

 The electronic state is 2-A.
 Alpha  occ. eigenvalues --  -38.45467 -38.44789 -38.44722 -38.43669 -38.43505
 Alpha  occ. eigenvalues --  -38.43444 -38.43375  -2.21230  -2.20796  -2.20729
 Alpha  occ. eigenvalues --   -2.19671  -2.19563  -2.19431  -2.19376  -1.14935
 Alpha  occ. eigenvalues --   -1.14890  -1.14878  -1.14575  -1.14483  -1.14423
 Alpha  occ. eigenvalues --   -1.14417  -1.14344  -1.14298  -1.13472  -1.13338
 Alpha  occ. eigenvalues --   -1.13323  -1.13304  -1.13261  -1.13149  -1.13074
 Alpha  occ. eigenvalues --   -1.13066  -1.13030  -1.13019  -1.12979  -1.12953
 Alpha  occ. eigenvalues --   -0.19980  -0.13580  -0.12276  -0.11605
 Alpha virt. eigenvalues --   -0.07459  -0.03986  -0.03849  -0.03600  -0.02883
 Alpha virt. eigenvalues --   -0.02815  -0.02657  -0.00836  -0.00380  -0.00061
 Alpha virt. eigenvalues --    0.00127   0.00296   0.00387   0.00804   0.01041

  Beta  occ. eigenvalues --  -38.45507 -38.44731 -38.44660 -38.43621 -38.43482
  Beta  occ. eigenvalues --  -38.43409 -38.43335  -2.21305  -2.20693  -2.20619
  Beta  occ. eigenvalues --   -2.19586  -2.19523  -2.19372  -2.19306  -1.14984
  Beta  occ. eigenvalues --   -1.14941  -1.14930  -1.14507  -1.14396  -1.14343
  Beta  occ. eigenvalues --   -1.14329  -1.14258  -1.14219  -1.13441  -1.13288
  Beta  occ. eigenvalues --   -1.13265  -1.13240  -1.13210  -1.13104  -1.13043
  Beta  occ. eigenvalues --   -1.12989  -1.12983  -1.12972  -1.12929  -1.12898
  Beta  occ. eigenvalues --   -0.19053  -0.13769  -0.11280
  Beta virt. eigenvalues --   -0.07817  -0.07334  -0.03801  -0.03429  -0.03074
  Beta virt. eigenvalues --   -0.02915  -0.02029  -0.01734  -0.00531  -0.00380
  Beta virt. eigenvalues --   -0.00089   0.00135   0.00392   0.00455   0.00847

 Mulliken charges and spin densities:
               1          2
     1  Na  -0.022413   0.188386
     2  Na   1.001266   0.046916
     3  Na   0.625293   0.202106
     4  Na   1.019930   0.147959
     5  Na  -0.556338   0.264573
     6  Na  -0.738892   0.375067
     7  Na  -1.328846  -0.225006
 Sum of Mulliken charges =  -0.00000   1.00000

 Dipole moment (field-independent basis, Debye):
    X=             -0.4244    Y=             -0.6196    Z=              0.1245  Tot=              0.7613
 Quadrupole moment (field-independent basis, Debye-Ang):
   XX=            -50.2584   YY=            -76.6575   ZZ=            -67.1753
   XY=             -0.1611   XZ=             -0.6443   YZ=              0.3853

 Normal termination of Gaussian 16 at Mon Nov 13 16:35:44 2023.
