 Gaussian 16, Revision B.01,
 Gaussian 16:  ES64L-G16RevB.01 20-Dec-2017

 -------------------------
 #P B3LYP/6-311+g(d) force
 -------------------------

 ------------------------------
 Gaussian input prepared by ASE
 ------------------------------
 Symbolic Z-matrix:
 Charge =  0 Multiplicity = 2

                         Standard orientation:
 ---------------------------------------------------------------------
 Center     Atomic      Atomic             Coordinates (Angstroms)
 Number     Number       Type             X           Y           Z
 ---------------------------------------------------------------------
      1         11           0       -1.109854    0.598862   -1.486205
      2         11           0        1.095317   -1.532716    1.530555
      3         11           0        0.914245   -1.623872   -1.461780
      4         11           0        2.864169    0.226248   -0.131570
      5         11           0        0.765330    2.369642    0.040110
      6         11           0       -1.092060    0.526773    1.510788
      7         11           0       -3.437147   -0.564937   -0.001897
 ---------------------------------------------------------------------

 SCF Done:  E(UB3LYP) =  -1136.10308255     A.U. after   22 cycles

 The electronic state is 2-A.
 Alpha  occ. eigenvalues --  -38.44889 -38.44701 -38.43940 -38.43936 -38.43889
 Alpha  occ. eigenvalues --  -38.43777 -38.42212  -2.20764  -2.20683  -2.20041
 Alpha  occ. eigenvalues --   -2.20024  -2.19886  -2.19771  -2.18206  -1.14498
 Alpha  occ. eigenvalues --   -1.14454  -1.14401  -1.14370  -1.14368  -1.14318
 Alpha  occ. eigenvalues --   -1.13850  -1.13786  -1.13747  -1.13658  -1.13636
 Alpha  occ. eigenvalues --   -1.13610  -1.13576  -1.13499  -1.13482  -1.13404
 Alpha  occ. eigenvalues --   -1.13375  -1.13330  -1.11900  -1.11851  -1.11844
 Alpha  occ. eigenvalues --   -0.20103  -0.14005  -0.12267  -0.11659
 Alpha virt. eigenvalues --   -0.06458  -0.04413  -0.03946  -0.03632  -0.02941
 Alpha virt. eigenvalues --   -0.02854  -0.01986  -0.00356  -0.00274   0.00257
 Alpha virt. eigenvalues --    0.00421   0.00458   0.00529   0.00901   0.01119

  Beta  occ. eigenvalues --  -38.44892 -38.44698 -38.43879 -38.43878 -38.43836
  Beta  occ. eigenvalues --  -38.43728 -38.42206  -2.20771  -2.20679  -2.19934
  Beta  occ. eigenvalues --   -2.19918  -2.19790  -2.19683  -2.18199  -1.14503
  Beta  occ. eigenvalues --   -1.14440  -1.14402  -1.14374  -1.14333  -1.14323
  Beta  occ. eigenvalues --   -1.13783  -1.13690  -1.13661  -1.13586  -1.13560
  Beta  occ. eigenvalues --   -1.13549  -1.13497  -1.13433  -1.13401  -1.13338
  Beta  occ. eigenvalues --   -1.13315  -1.13254  -1.11899  -1.11848  -1.11810
  Beta  occ. eigenvalues --   -0.19275  -0.13879  -0.11462
  Beta virt. eigenvalues --   -0.07995  -0.06301  -0.03891  -0.03673  -0.03344
  Beta virt. eigenvalues --   -0.02179  -0.02088  -0.01834  -0.00284  -0.00048
  Beta virt. eigenvalues --    0.00273   0.00475   0.00510   0.00699   0.00965

 Mulliken charges and spin densities:
               1          2
     1  Na  -0.044649   0.286273
     2  Na  -0.045175   0.202965
     3  Na  -0.034218   0.210462
     4  Na   0.057294   0.059626
     5  Na  -0.033547   0.122394
     6  Na  -0.023111   0.214349
     7  Na   0.123405  -0.096069
 Sum of Mulliken charges =  -0.00000   1.00000

 Dipole moment (field-independent basis, Debye):
    X=             -0.4331    Y=             -0.4156    Z=             -0.0146  Tot=              0.6004
 Quadrupole moment (field-independent basis, Debye-Ang):
   XX=            -53.1926   YY=            -75.9599   ZZ=            -66.8888
   XY=              2.0519   XZ=             -0.0877   YZ=             -0.1722

 Normal termination of Gaussian 16 at Mon Nov 13 16:42:41 2023.
