 Gaussian 16, Revision B.01,
 Gaussian 16:  ES64L-G16RevB.01 20-Dec-2017

 -------------------------
 #P B3LYP/6-311+g(d) force
 -------------------------

 ------------------------------
 Gaussian input prepared by ASE
 ------------------------------
 Symbolic Z-matrix:
 Charge =  0 Multiplicity = 2

                         Standard orientation:
 ---------------------------------------------------------------------
 Center     Atomic      Atomic             Coordinates (Angstroms)
 Number     Number       Type             X           Y           Z
 ---------------------------------------------------------------------
      1         11           0        1.489877    0.916679   -0.481613
      2         11           0       -1.118039    2.402656   -0.420791
      3         11           0       -4.672632   -0.572779    1.289560
      4         11           0       -2.611266   -0.167730   -0.847598
      5         11           0       -0.037022   -1.670712   -0.499192
      6         11           0        2.947119   -1.686065   -0.190101
      7         11           0        4.001963    0.777951    1.149734
 ---------------------------------------------------------------------

 SCF Done:  E(UB3LYP) =  -1136.09816330     A.U. after   24 cycles

 The electronic state is 2-A.
 Alpha  occ. eigenvalues --  -38.45285 -38.44631 -38.44513 -38.44122 -38.43924
 Alpha  occ. eigenvalues --  -38.43415 -38.43019  -2.21198  -2.20610  -2.20342
 Alpha  occ. eigenvalues --   -2.20112  -2.19899  -2.19500  -2.18917  -1.14889
 Alpha  occ. eigenvalues --   -1.14834  -1.14808  -1.14362  -1.14269  -1.14219
 Alpha  occ. eigenvalues --   -1.14049  -1.13968  -1.13959  -1.13824  -1.13760
 Alpha  occ. eigenvalues --   -1.13735  -1.13605  -1.13554  -1.13515  -1.13211
 Alpha  occ. eigenvalues --   -1.13161  -1.13145  -1.12585  -1.12560  -1.12545
 Alpha  occ. eigenvalues --   -0.18718  -0.15243  -0.11914  -0.11378
 Alpha virt. eigenvalues --   -0.05808  -0.05546  -0.05030  -0.03482  -0.02738
 Alpha virt. eigenvalues --   -0.02398  -0.02178  -0.00834  -0.00528  -0.00338
 Alpha virt. eigenvalues --   -0.00131   0.00115   0.00313   0.00522   0.00619

  Beta  occ. eigenvalues --  -38.45206 -38.44553 -38.44440 -38.44102 -38.43922
  Beta  occ. eigenvalues --  -38.43404 -38.43029  -2.21051  -2.20472  -2.20207
  Beta  occ. eigenvalues --   -2.20083  -2.19902  -2.19490  -2.18935  -1.14797
  Beta  occ. eigenvalues --   -1.14732  -1.14706  -1.14271  -1.14165  -1.14123
  Beta  occ. eigenvalues --   -1.13959  -1.13876  -1.13868  -1.13813  -1.13725
  Beta  occ. eigenvalues --   -1.13675  -1.13597  -1.13557  -1.13481  -1.13164
  Beta  occ. eigenvalues --   -1.13160  -1.13128  -1.12602  -1.12570  -1.12554
  Beta  occ. eigenvalues --   -0.18006  -0.14609  -0.11018
  Beta virt. eigenvalues --   -0.08339  -0.05357  -0.05178  -0.04813  -0.03163
  Beta virt. eigenvalues --   -0.02465  -0.01889  -0.01665  -0.00742  -0.00282
  Beta virt. eigenvalues --   -0.00141   0.00103   0.00242   0.00391   0.00597

 Mulliken charges and spin densities:
               1          2
     1  Na  -2.051572   0.067187
     2  Na   0.380175   0.116372
     3  Na  -0.383546   0.396751
     4  Na   0.187138  -0.128248
     5  Na   0.504910   0.307204
     6  Na   0.668973   0.017797
     7  Na   0.693922   0.222936
 Sum of Mulliken charges =  -0.00000   1.00000

 Dipole moment (field-independent basis, Debye):
    X=              1.0707    Y=              0.1025    Z=              0.9977  Tot=              1.4670
 Quadrupole moment (field-independent basis, Debye-Ang):
   XX=            -57.0087   YY=            -73.6157   ZZ=            -66.6316
   XY=             -2.9376   XZ=              0.5419   YZ=              2.1211

 Normal termination of Gaussian 16 at Mon Nov 13 15:14:16 2023.
