 Gaussian 16, Revision B.01,
 Gaussian 16:  ES64L-G16RevB.01 20-Dec-2017

 -------------------------
 #P B3LYP/6-311+g(d) force
 -------------------------

 ------------------------------
 Gaussian input prepared by ASE
 ------------------------------
 Symbolic Z-matrix:
 Charge =  0 Multiplicity = 2

                         Standard orientation:
 ---------------------------------------------------------------------
 Center     Atomic      Atomic             Coordinates (Angstroms)
 Number     Number       Type             X           Y           Z
 ---------------------------------------------------------------------
      1         11           0        0.049600   -0.035216   -0.986720
      2         11           0        2.209002   -2.099124   -0.656083
      3         11           0        2.066530    2.168516   -0.648233
      4         11           0        1.810638    0.018474    1.431156
      5         11           0       -1.155611   -0.328865    1.739924
      6         11           0       -2.636680   -1.334318   -0.664500
      7         11           0       -2.343478    1.610533   -0.215543
 ---------------------------------------------------------------------

 SCF Done:  E(UB3LYP) =  -1136.09859017     A.U. after   24 cycles

 The electronic state is 2-A.
 Alpha  occ. eigenvalues --  -38.44480 -38.44286 -38.44044 -38.43760 -38.43738
 Alpha  occ. eigenvalues --  -38.43421 -38.42973  -2.20461  -2.20262  -2.20133
 Alpha  occ. eigenvalues --   -2.19846  -2.19629  -2.19314  -2.19274  -1.14273
 Alpha  occ. eigenvalues --   -1.14138  -1.14104  -1.14006  -1.13939  -1.13892
 Alpha  occ. eigenvalues --   -1.13818  -1.13743  -1.13679  -1.13605  -1.13510
 Alpha  occ. eigenvalues --   -1.13490  -1.13346  -1.13240  -1.13222  -1.13087
 Alpha  occ. eigenvalues --   -1.12977  -1.12966  -1.12905  -1.12887  -1.12802
 Alpha  occ. eigenvalues --   -0.19965  -0.14537  -0.11515  -0.11315
 Alpha virt. eigenvalues --   -0.05709  -0.05461  -0.04426  -0.03221  -0.02370
 Alpha virt. eigenvalues --   -0.02277  -0.01695  -0.00987  -0.00312   0.00279
 Alpha virt. eigenvalues --    0.00420   0.00456   0.00670   0.00788   0.00886

  Beta  occ. eigenvalues --  -38.44462 -38.44276 -38.43959 -38.43728 -38.43716
  Beta  occ. eigenvalues --  -38.43414 -38.42928  -2.20430  -2.20247  -2.19981
  Beta  occ. eigenvalues --   -2.19769  -2.19611  -2.19303  -2.19199  -1.14252
  Beta  occ. eigenvalues --   -1.14090  -1.14083  -1.13982  -1.13901  -1.13810
  Beta  occ. eigenvalues --   -1.13790  -1.13640  -1.13582  -1.13558  -1.13464
  Beta  occ. eigenvalues --   -1.13409  -1.13319  -1.13215  -1.13207  -1.13060
  Beta  occ. eigenvalues --   -1.12957  -1.12900  -1.12878  -1.12838  -1.12757
  Beta  occ. eigenvalues --   -0.19195  -0.14319  -0.11099
  Beta virt. eigenvalues --   -0.07365  -0.05582  -0.05414  -0.03690  -0.02933
  Beta virt. eigenvalues --   -0.01743  -0.01703  -0.01361  -0.00891  -0.00016
  Beta virt. eigenvalues --    0.00327   0.00433   0.00466   0.00682   0.00888

 Mulliken charges and spin densities:
               1          2
     1  Na  -0.613068  -0.055036
     2  Na  -0.266610   0.093179
     3  Na   0.447997   0.075745
     4  Na   0.097851   0.191292
     5  Na  -0.044180   0.260887
     6  Na   0.289322   0.213584
     7  Na   0.088688   0.220348
 Sum of Mulliken charges =  -0.00000   1.00000

 Dipole moment (field-independent basis, Debye):
    X=             -0.6539    Y=             -0.0914    Z=             -0.1102  Tot=              0.6694
 Quadrupole moment (field-independent basis, Debye-Ang):
   XX=            -53.1981   YY=            -69.8433   ZZ=            -70.0106
   XY=             -0.0708   XZ=              0.5871   YZ=              1.1372

 Normal termination of Gaussian 16 at Mon Nov 13 17:24:38 2023.
