 Gaussian 16, Revision B.01,
 Gaussian 16:  ES64L-G16RevB.01 20-Dec-2017

 -------------------------
 #P B3LYP/6-311+g(d) force
 -------------------------

 ------------------------------
 Gaussian input prepared by ASE
 ------------------------------
 Symbolic Z-matrix:
 Charge =  0 Multiplicity = 2

                         Standard orientation:
 ---------------------------------------------------------------------
 Center     Atomic      Atomic             Coordinates (Angstroms)
 Number     Number       Type             X           Y           Z
 ---------------------------------------------------------------------
      1         11           0       -0.335940    0.409162   -1.512559
      2         11           0        0.228909   -2.071598   -0.650736
      3         11           0        2.281605   -0.814272    0.544198
      4         11           0       -0.278613   -0.516572    1.568250
      5         11           0       -2.421991   -0.681403   -0.124495
      6         11           0       -1.108237    1.943545    0.638818
      7         11           0        1.634266    1.731139   -0.463477
 ---------------------------------------------------------------------

 SCF Done:  E(UB3LYP) =  -1136.05837792     A.U. after   20 cycles

 The electronic state is 2-A.
 Alpha  occ. eigenvalues --  -38.44613 -38.44350 -38.44177 -38.43935 -38.43915
 Alpha  occ. eigenvalues --  -38.43870 -38.43702  -2.21043  -2.20717  -2.20312
 Alpha  occ. eigenvalues --   -2.20128  -2.20050  -2.20020  -2.19859  -1.14993
 Alpha  occ. eigenvalues --   -1.14876  -1.14768  -1.14631  -1.14510  -1.14387
 Alpha  occ. eigenvalues --   -1.14178  -1.14053  -1.13889  -1.13784  -1.13725
 Alpha  occ. eigenvalues --   -1.13706  -1.13695  -1.13635  -1.13622  -1.13599
 Alpha  occ. eigenvalues --   -1.13549  -1.13524  -1.13483  -1.13463  -1.13350
 Alpha  occ. eigenvalues --   -0.21968  -0.13870  -0.13203  -0.12393
 Alpha virt. eigenvalues --   -0.05060  -0.04286  -0.04133  -0.03678  -0.03284
 Alpha virt. eigenvalues --   -0.02850  -0.00915  -0.00515  -0.00084   0.00339
 Alpha virt. eigenvalues --    0.00882   0.00927   0.01088   0.01146   0.01200

  Beta  occ. eigenvalues --  -38.44527 -38.44266 -38.44160 -38.43920 -38.43887
  Beta  occ. eigenvalues --  -38.43856 -38.43679  -2.20891  -2.20568  -2.20286
  Beta  occ. eigenvalues --   -2.20086  -2.20028  -2.20001  -2.19822  -1.14881
  Beta  occ. eigenvalues --   -1.14794  -1.14663  -1.14535  -1.14415  -1.14287
  Beta  occ. eigenvalues --   -1.14147  -1.14032  -1.13831  -1.13745  -1.13698
  Beta  occ. eigenvalues --   -1.13682  -1.13627  -1.13602  -1.13586  -1.13538
  Beta  occ. eigenvalues --   -1.13526  -1.13503  -1.13461  -1.13388  -1.13332
  Beta  occ. eigenvalues --   -0.21181  -0.13512  -0.12887
  Beta virt. eigenvalues --   -0.08074  -0.05064  -0.04270  -0.04096  -0.02737
  Beta virt. eigenvalues --   -0.02440  -0.01635  -0.00861  -0.00471   0.00071
  Beta virt. eigenvalues --    0.00372   0.00871   0.00923   0.01105   0.01139

 Mulliken charges and spin densities:
               1          2
     1  Na  -0.729723   0.281202
     2  Na   0.388083   0.147900
     3  Na   0.249282   0.014120
     4  Na  -0.467932   0.434471
     5  Na   0.088493  -0.100901
     6  Na   0.253740   0.087386
     7  Na   0.218057   0.135822
 Sum of Mulliken charges =  -0.00000   1.00000

 Dipole moment (field-independent basis, Debye):
    X=              0.0509    Y=              0.0966    Z=              0.1716  Tot=              0.2034
 Quadrupole moment (field-independent basis, Debye-Ang):
   XX=            -61.4511   YY=            -67.8974   ZZ=            -68.8997
   XY=              0.4104   XZ=              0.1328   YZ=              1.3217

 Normal termination of Gaussian 16 at Mon Nov 13 19:43:17 2023.
