 Gaussian 16, Revision B.01,
 Gaussian 16:  ES64L-G16RevB.01 20-Dec-2017

 -------------------------
 #P B3LYP/6-311+g(d) force
 -------------------------

 ------------------------------
 Gaussian input prepared by ASE
 ------------------------------
 Symbolic Z-matrix:
 Charge =  0 Multiplicity = 2

                         Standard orientation:
 ---------------------------------------------------------------------
 Center     Atomic      Atomic             Coordinates (Angstroms)
 Number     Number       Type             X           Y           Z
 ---------------------------------------------------------------------
      1         11           0       -0.181969   -0.158972    1.467539
      2         11           0        0.933154    0.893853   -1.117347
      3         11           0        3.587744    1.644968    0.058492
      4         11           0        2.479126   -1.116181    0.468831
      5         11           0       -0.046187   -1.936845   -0.933736
      6         11           0       -2.711108   -1.002814    0.090938
      7         11           0       -4.060760    1.675991   -0.034716
 ---------------------------------------------------------------------

 SCF Done:  E(UB3LYP) =  -1136.09138513     A.U. after   26 cycles

 The electronic state is 2-A.
 Alpha  occ. eigenvalues --  -38.44577 -38.44436 -38.44335 -38.44261 -38.44232
 Alpha  occ. eigenvalues --  -38.44092 -38.42901  -2.20668  -2.20516  -2.20418
 Alpha  occ. eigenvalues --   -2.20240  -2.20026  -2.19989  -2.19002  -1.14511
 Alpha  occ. eigenvalues --   -1.14353  -1.14335  -1.14286  -1.14210  -1.14089
 Alpha  occ. eigenvalues --   -1.14072  -1.14038  -1.14026  -1.13963  -1.13891
 Alpha  occ. eigenvalues --   -1.13882  -1.13680  -1.13676  -1.13655  -1.13644
 Alpha  occ. eigenvalues --   -1.13629  -1.13602  -1.12698  -1.12665  -1.12585
 Alpha  occ. eigenvalues --   -0.19902  -0.14702  -0.11684  -0.10669
 Alpha virt. eigenvalues --   -0.07098  -0.06095  -0.03720  -0.03259  -0.02822
 Alpha virt. eigenvalues --   -0.02079  -0.01978  -0.01333  -0.00659  -0.00292
 Alpha virt. eigenvalues --    0.00026   0.00279   0.00552   0.00597   0.00732

  Beta  occ. eigenvalues --  -38.44541 -38.44372 -38.44274 -38.44256 -38.44249
  Beta  occ. eigenvalues --  -38.44090 -38.42864  -2.20609  -2.20403  -2.20311
  Beta  occ. eigenvalues --   -2.20233  -2.20058  -2.19988  -2.18939  -1.14466
  Beta  occ. eigenvalues --   -1.14305  -1.14250  -1.14210  -1.14147  -1.14008
  Beta  occ. eigenvalues --   -1.13988  -1.13969  -1.13963  -1.13937  -1.13868
  Beta  occ. eigenvalues --   -1.13850  -1.13701  -1.13694  -1.13661  -1.13655
  Beta  occ. eigenvalues --   -1.13614  -1.13588  -1.12657  -1.12628  -1.12492
  Beta  occ. eigenvalues --   -0.19104  -0.14537  -0.11546
  Beta virt. eigenvalues --   -0.06911  -0.06501  -0.06037  -0.03199  -0.03023
  Beta virt. eigenvalues --   -0.02731  -0.01702  -0.01429  -0.00695  -0.00662
  Beta virt. eigenvalues --   -0.00025   0.00108   0.00320   0.00640   0.00702

 Mulliken charges and spin densities:
               1          2
     1  Na  -0.657459   0.355406
     2  Na  -0.919427   0.320526
     3  Na   0.248540  -0.049086
     4  Na   0.925691   0.295773
     5  Na  -0.008393   0.204623
     6  Na   0.524018  -0.009268
     7  Na  -0.112969  -0.117973
 Sum of Mulliken charges =  -0.00000   1.00000

 Dipole moment (field-independent basis, Debye):
    X=              0.5219    Y=             -0.0746    Z=             -0.0786  Tot=              0.5330
 Quadrupole moment (field-independent basis, Debye-Ang):
   XX=            -56.4907   YY=            -64.4080   ZZ=            -76.4346
   XY=             -1.1504   XZ=              1.8839   YZ=              1.2138

 Normal termination of Gaussian 16 at Mon Nov 13 16:29:05 2023.
