 Gaussian 16, Revision B.01,
 Gaussian 16:  ES64L-G16RevB.01 20-Dec-2017

 -------------------------
 #P B3LYP/6-311+g(d) force
 -------------------------

 ------------------------------
 Gaussian input prepared by ASE
 ------------------------------
 Symbolic Z-matrix:
 Charge =  0 Multiplicity = 2

                         Standard orientation:
 ---------------------------------------------------------------------
 Center     Atomic      Atomic             Coordinates (Angstroms)
 Number     Number       Type             X           Y           Z
 ---------------------------------------------------------------------
      1         11           0       -1.190470    0.325251    1.218555
      2         11           0        0.810413   -1.759604    2.027035
      3         11           0       -3.616630    0.476175   -0.530369
      4         11           0       -1.204766   -1.030611   -1.462297
      5         11           0        1.666076   -1.661809   -0.850469
      6         11           0        2.757616    1.122869   -1.081895
      7         11           0        0.777761    2.527729    0.679440
 ---------------------------------------------------------------------

 SCF Done:  E(UB3LYP) =  -1136.10707415     A.U. after   22 cycles

 The electronic state is 2-A.
 Alpha  occ. eigenvalues --  -38.44524 -38.44468 -38.44344 -38.44155 -38.43796
 Alpha  occ. eigenvalues --  -38.43426 -38.43200  -2.20418  -2.20386  -2.20327
 Alpha  occ. eigenvalues --   -2.20047  -2.19886  -2.19418  -2.19083  -1.14222
 Alpha  occ. eigenvalues --   -1.14126  -1.14100  -1.14052  -1.14039  -1.14026
 Alpha  occ. eigenvalues --   -1.13970  -1.13935  -1.13910  -1.13757  -1.13717
 Alpha  occ. eigenvalues --   -1.13674  -1.13559  -1.13521  -1.13506  -1.13097
 Alpha  occ. eigenvalues --   -1.13048  -1.13039  -1.12766  -1.12732  -1.12698
 Alpha  occ. eigenvalues --   -0.19198  -0.13850  -0.12240  -0.11968
 Alpha virt. eigenvalues --   -0.06123  -0.04622  -0.04227  -0.03700  -0.03199
 Alpha virt. eigenvalues --   -0.02964  -0.01765  -0.00626  -0.00361   0.00156
 Alpha virt. eigenvalues --    0.00319   0.00425   0.00619   0.00820   0.01011

  Beta  occ. eigenvalues --  -38.44516 -38.44391 -38.44303 -38.44130 -38.43743
  Beta  occ. eigenvalues --  -38.43403 -38.43191  -2.20403  -2.20254  -2.20247
  Beta  occ. eigenvalues --   -2.20002  -2.19795  -2.19379  -2.19069  -1.14194
  Beta  occ. eigenvalues --   -1.14092  -1.14023  -1.14014  -1.13983  -1.13958
  Beta  occ. eigenvalues --   -1.13885  -1.13876  -1.13863  -1.13719  -1.13692
  Beta  occ. eigenvalues --   -1.13639  -1.13503  -1.13456  -1.13409  -1.13062
  Beta  occ. eigenvalues --   -1.13021  -1.12993  -1.12747  -1.12720  -1.12686
  Beta  occ. eigenvalues --   -0.18446  -0.13550  -0.11819
  Beta virt. eigenvalues --   -0.08175  -0.05842  -0.04219  -0.03921  -0.03392
  Beta virt. eigenvalues --   -0.02567  -0.02203  -0.01609  -0.00479  -0.00174
  Beta virt. eigenvalues --    0.00252   0.00376   0.00514   0.00744   0.00896

 Mulliken charges and spin densities:
               1          2
     1  Na  -1.121035   0.130591
     2  Na   0.607393   0.292355
     3  Na   1.079031   0.104556
     4  Na  -0.348704   0.252282
     5  Na  -0.097753   0.066092
     6  Na  -0.209898   0.170513
     7  Na   0.090966  -0.016389
 Sum of Mulliken charges =  -0.00000   1.00000

 Dipole moment (field-independent basis, Debye):
    X=             -0.6097    Y=             -0.2582    Z=             -0.1410  Tot=              0.6770
 Quadrupole moment (field-independent basis, Debye-Ang):
   XX=            -57.0147   YY=            -73.7742   ZZ=            -65.8319
   XY=             -3.1259   XZ=              0.4889   YZ=             -1.1380

 Normal termination of Gaussian 16 at Mon Nov 13 15:26:17 2023.
