 Gaussian 16, Revision B.01,
 Gaussian 16:  ES64L-G16RevB.01 20-Dec-2017

 -------------------------
 #P B3LYP/6-311+g(d) force
 -------------------------

 ------------------------------
 Gaussian input prepared by ASE
 ------------------------------
 Symbolic Z-matrix:
 Charge =  0 Multiplicity = 2

                         Standard orientation:
 ---------------------------------------------------------------------
 Center     Atomic      Atomic             Coordinates (Angstroms)
 Number     Number       Type             X           Y           Z
 ---------------------------------------------------------------------
      1         11           0       -0.740919   -1.272572   -0.558753
      2         11           0        0.779292    0.737264   -1.763363
      3         11           0       -3.346091   -0.166610   -0.105283
      4         11           0       -1.004407    1.414575    0.379293
      5         11           0        1.849946    1.332633    0.594988
      6         11           0        0.345014   -0.683248    1.799126
      7         11           0        2.117164   -1.362044   -0.346009
 ---------------------------------------------------------------------

 SCF Done:  E(UB3LYP) =  -1136.05600693     A.U. after   24 cycles

 The electronic state is 2-A.
 Alpha  occ. eigenvalues --  -38.45210 -38.44493 -38.44381 -38.44096 -38.43797
 Alpha  occ. eigenvalues --  -38.43729 -38.43268  -2.21133  -2.20737  -2.20628
 Alpha  occ. eigenvalues --   -2.20328  -2.20069  -2.19964  -2.19542  -1.14897
 Alpha  occ. eigenvalues --   -1.14819  -1.14739  -1.14723  -1.14579  -1.14520
 Alpha  occ. eigenvalues --   -1.14415  -1.14374  -1.14275  -1.13993  -1.13917
 Alpha  occ. eigenvalues --   -1.13795  -1.13784  -1.13726  -1.13608  -1.13558
 Alpha  occ. eigenvalues --   -1.13546  -1.13460  -1.13226  -1.13151  -1.13083
 Alpha  occ. eigenvalues --   -0.21908  -0.14477  -0.12937  -0.11658
 Alpha virt. eigenvalues --   -0.06385  -0.04132  -0.03708  -0.03653  -0.02651
 Alpha virt. eigenvalues --   -0.02557  -0.01826  -0.00454  -0.00178   0.00238
 Alpha virt. eigenvalues --    0.00578   0.00762   0.00905   0.00977   0.01090

  Beta  occ. eigenvalues --  -38.45214 -38.44411 -38.44307 -38.44060 -38.43772
  Beta  occ. eigenvalues --  -38.43690 -38.43236  -2.21142  -2.20592  -2.20497
  Beta  occ. eigenvalues --   -2.20270  -2.20006  -2.19925  -2.19493  -1.14902
  Beta  occ. eigenvalues --   -1.14823  -1.14724  -1.14674  -1.14506  -1.14399
  Beta  occ. eigenvalues --   -1.14314  -1.14269  -1.14173  -1.13938  -1.13858
  Beta  occ. eigenvalues --   -1.13740  -1.13714  -1.13686  -1.13531  -1.13505
  Beta  occ. eigenvalues --   -1.13475  -1.13432  -1.13198  -1.13062  -1.13049
  Beta  occ. eigenvalues --   -0.20987  -0.14230  -0.11479
  Beta virt. eigenvalues --   -0.08326  -0.06260  -0.03805  -0.03267  -0.03170
  Beta virt. eigenvalues --   -0.01979  -0.01803  -0.01614  -0.00300  -0.00054
  Beta virt. eigenvalues --    0.00280   0.00607   0.00810   0.01003   0.01045

 Mulliken charges and spin densities:
               1          2
     1  Na  -0.270946   0.239444
     2  Na   0.197552   0.354819
     3  Na  -0.165399  -0.123986
     4  Na  -0.411596   0.086834
     5  Na   0.248618   0.075021
     6  Na   0.192203   0.426922
     7  Na   0.209568  -0.059055
 Sum of Mulliken charges =  -0.00000   1.00000

 Dipole moment (field-independent basis, Debye):
    X=             -0.7405    Y=             -0.0253    Z=             -0.0374  Tot=              0.7419
 Quadrupole moment (field-independent basis, Debye-Ang):
   XX=            -51.5948   YY=            -77.7502   ZZ=            -66.0986
   XY=             -0.0976   XZ=              0.1112   YZ=              3.1051

 Normal termination of Gaussian 16 at Mon Nov 13 19:57:09 2023.
