 Gaussian 16, Revision B.01,
 Gaussian 16:  ES64L-G16RevB.01 20-Dec-2017

 -------------------------
 #P B3LYP/6-311+g(d) force
 -------------------------

 ------------------------------
 Gaussian input prepared by ASE
 ------------------------------
 Symbolic Z-matrix:
 Charge =  0 Multiplicity = 2

                         Standard orientation:
 ---------------------------------------------------------------------
 Center     Atomic      Atomic             Coordinates (Angstroms)
 Number     Number       Type             X           Y           Z
 ---------------------------------------------------------------------
      1         11           0       -1.101873   -1.617060   -0.783381
      2         11           0        0.648874    1.949356   -1.536317
      3         11           0       -3.902889   -0.954902    0.023015
      4         11           0       -1.817984    1.191616   -0.001182
      5         11           0        0.076476    0.767523    2.291988
      6         11           0        1.565300   -0.468984   -0.006554
      7         11           0        4.532096   -0.867549    0.012432
 ---------------------------------------------------------------------

 SCF Done:  E(UB3LYP) =  -1136.09466616     A.U. after   27 cycles

 The electronic state is 2-A.
 Alpha  occ. eigenvalues --  -38.44918 -38.44646 -38.44463 -38.44134 -38.44020
 Alpha  occ. eigenvalues --  -38.43601 -38.43264  -2.20894  -2.20409  -2.20397
 Alpha  occ. eigenvalues --   -2.20020  -2.19957  -2.19726  -2.19353  -1.14596
 Alpha  occ. eigenvalues --   -1.14587  -1.14508  -1.14136  -1.14086  -1.14072
 Alpha  occ. eigenvalues --   -1.14072  -1.14070  -1.13974  -1.13773  -1.13675
 Alpha  occ. eigenvalues --   -1.13664  -1.13654  -1.13641  -1.13550  -1.13391
 Alpha  occ. eigenvalues --   -1.13382  -1.13276  -1.13056  -1.13023  -1.12918
 Alpha  occ. eigenvalues --   -0.19602  -0.13758  -0.11717  -0.11645
 Alpha virt. eigenvalues --   -0.07586  -0.04712  -0.03631  -0.03481  -0.02988
 Alpha virt. eigenvalues --   -0.02710  -0.02469  -0.01167  -0.00510  -0.00367
 Alpha virt. eigenvalues --    0.00098   0.00297   0.00446   0.00734   0.00853

  Beta  occ. eigenvalues --  -38.44870 -38.44713 -38.44360 -38.44157 -38.43945
  Beta  occ. eigenvalues --  -38.43564 -38.43235  -2.20808  -2.20533  -2.20206
  Beta  occ. eigenvalues --   -2.20064  -2.19820  -2.19665  -2.19302  -1.14552
  Beta  occ. eigenvalues --   -1.14528  -1.14419  -1.14216  -1.14156  -1.14153
  Beta  occ. eigenvalues --   -1.13968  -1.13927  -1.13840  -1.13791  -1.13696
  Beta  occ. eigenvalues --   -1.13666  -1.13587  -1.13552  -1.13445  -1.13356
  Beta  occ. eigenvalues --   -1.13276  -1.13243  -1.13037  -1.12921  -1.12905
  Beta  occ. eigenvalues --   -0.18669  -0.13983  -0.11438
  Beta virt. eigenvalues --   -0.07433  -0.07315  -0.04594  -0.03280  -0.02916
  Beta virt. eigenvalues --   -0.02759  -0.01919  -0.01650  -0.01180  -0.00444
  Beta virt. eigenvalues --   -0.00280   0.00098   0.00328   0.00621   0.00874

 Mulliken charges and spin densities:
               1          2
     1  Na  -0.051535   0.273892
     2  Na   0.504107   0.428724
     3  Na   0.680204  -0.214437
     4  Na  -0.462272   0.268883
     5  Na   0.246650   0.526851
     6  Na  -0.925199   0.111995
     7  Na   0.008045  -0.395908
 Sum of Mulliken charges =  -0.00000   1.00000

 Dipole moment (field-independent basis, Debye):
    X=             -0.2181    Y=              0.6691    Z=              0.2013  Tot=              0.7320
 Quadrupole moment (field-independent basis, Debye-Ang):
   XX=            -55.3266   YY=            -71.6033   ZZ=            -69.6242
   XY=              1.1245   XZ=             -1.8296   YZ=             -0.8357

 Normal termination of Gaussian 16 at Mon Nov 13 16:19:42 2023.
