 Gaussian 16, Revision B.01,
 Gaussian 16:  ES64L-G16RevB.01 20-Dec-2017

 -------------------------
 #P B3LYP/6-311+g(d) force
 -------------------------

 ------------------------------
 Gaussian input prepared by ASE
 ------------------------------
 Symbolic Z-matrix:
 Charge =  0 Multiplicity = 2

                         Standard orientation:
 ---------------------------------------------------------------------
 Center     Atomic      Atomic             Coordinates (Angstroms)
 Number     Number       Type             X           Y           Z
 ---------------------------------------------------------------------
      1         11           0       -1.532543   -1.905320    1.370076
      2         11           0       -5.306106   -0.905685   -1.000124
      3         11           0       -2.877458    0.461212    0.108328
      4         11           0       -0.841342    2.597810    0.647464
      5         11           0        1.666886    1.464540   -0.546232
      6         11           0        3.041784   -1.197818   -0.694455
      7         11           0        5.848779   -0.514740    0.114942
 ---------------------------------------------------------------------

 SCF Done:  E(UB3LYP) =  -1136.09891654     A.U. after   23 cycles

 The electronic state is 2-A.
 Alpha  occ. eigenvalues --  -38.45395 -38.44878 -38.44630 -38.44286 -38.44059
 Alpha  occ. eigenvalues --  -38.43736 -38.43463  -2.21189  -2.20754  -2.20493
 Alpha  occ. eigenvalues --   -2.20125  -2.19880  -2.19628  -2.19433  -1.14899
 Alpha  occ. eigenvalues --   -1.14840  -1.14831  -1.14517  -1.14391  -1.14356
 Alpha  occ. eigenvalues --   -1.14180  -1.14145  -1.14118  -1.13828  -1.13756
 Alpha  occ. eigenvalues --   -1.13712  -1.13598  -1.13518  -1.13499  -1.13376
 Alpha  occ. eigenvalues --   -1.13261  -1.13242  -1.13112  -1.13076  -1.13015
 Alpha  occ. eigenvalues --   -0.16874  -0.14731  -0.12059  -0.10606
 Alpha virt. eigenvalues --   -0.07345  -0.05167  -0.04103  -0.03678  -0.03442
 Alpha virt. eigenvalues --   -0.02290  -0.01991  -0.01546  -0.01029  -0.00804
 Alpha virt. eigenvalues --   -0.00361   0.00001   0.00255   0.00462   0.00574

  Beta  occ. eigenvalues --  -38.45394 -38.44874 -38.44637 -38.44175 -38.44010
  Beta  occ. eigenvalues --  -38.43715 -38.43452  -2.21187  -2.20747  -2.20507
  Beta  occ. eigenvalues --   -2.19919  -2.19789  -2.19587  -2.19421  -1.14898
  Beta  occ. eigenvalues --   -1.14839  -1.14830  -1.14518  -1.14388  -1.14340
  Beta  occ. eigenvalues --   -1.14185  -1.14150  -1.14127  -1.13694  -1.13615
  Beta  occ. eigenvalues --   -1.13570  -1.13540  -1.13456  -1.13435  -1.13350
  Beta  occ. eigenvalues --   -1.13238  -1.13208  -1.13073  -1.13051  -1.13001
  Beta  occ. eigenvalues --   -0.16428  -0.14504  -0.11706
  Beta virt. eigenvalues --   -0.07243  -0.06748  -0.04847  -0.03864  -0.03463
  Beta virt. eigenvalues --   -0.03152  -0.01923  -0.01457  -0.01414  -0.00743
  Beta virt. eigenvalues --   -0.00589  -0.00116   0.00190   0.00331   0.00611

 Mulliken charges and spin densities:
               1          2
     1  Na   0.126001   0.493130
     2  Na   0.004954   0.254681
     3  Na  -1.897044   0.112655
     4  Na   1.827125   0.119696
     5  Na  -0.476520  -0.066050
     6  Na  -0.023798   0.026537
     7  Na   0.439283   0.059351
 Sum of Mulliken charges =  -0.00000   1.00000

 Dipole moment (field-independent basis, Debye):
    X=              2.4550    Y=             -0.3579    Z=             -0.0070  Tot=              2.4810
 Quadrupole moment (field-independent basis, Debye-Ang):
   XX=            -51.7085   YY=            -70.9364   ZZ=            -70.4427
   XY=              2.0821   XZ=              2.7335   YZ=              3.3111

 Normal termination of Gaussian 16 at Mon Nov 13 14:47:44 2023.
