 Gaussian 16, Revision B.01,
 Gaussian 16:  ES64L-G16RevB.01 20-Dec-2017

 -------------------------
 #P B3LYP/6-311+g(d) force
 -------------------------

 ------------------------------
 Gaussian input prepared by ASE
 ------------------------------
 Symbolic Z-matrix:
 Charge =  0 Multiplicity = 2

                         Standard orientation:
 ---------------------------------------------------------------------
 Center     Atomic      Atomic             Coordinates (Angstroms)
 Number     Number       Type             X           Y           Z
 ---------------------------------------------------------------------
      1         11           0        0.639713    1.627527   -0.462510
      2         11           0        0.557499   -1.343975   -0.894098
      3         11           0        3.190810    0.053732   -0.566211
      4         11           0        1.344470   -0.234400    1.777663
      5         11           0       -2.050836   -2.723355   -0.346515
      6         11           0       -1.500271   -0.025089    0.841077
      7         11           0       -2.181385    2.645560   -0.349405
 ---------------------------------------------------------------------

 SCF Done:  E(UB3LYP) =  -1136.10118866     A.U. after   25 cycles

 The electronic state is 2-A.
 Alpha  occ. eigenvalues --  -38.44273 -38.43925 -38.43706 -38.43678 -38.43427
 Alpha  occ. eigenvalues --  -38.43321 -38.43030  -2.20271  -2.20024  -2.19604
 Alpha  occ. eigenvalues --   -2.19585  -2.19570  -2.19480  -2.19204  -1.14043
 Alpha  occ. eigenvalues --   -1.13931  -1.13926  -1.13808  -1.13639  -1.13596
 Alpha  occ. eigenvalues --   -1.13414  -1.13401  -1.13353  -1.13291  -1.13264
 Alpha  occ. eigenvalues --   -1.13229  -1.13198  -1.13188  -1.13169  -1.13127
 Alpha  occ. eigenvalues --   -1.13078  -1.13010  -1.12898  -1.12823  -1.12742
 Alpha  occ. eigenvalues --   -0.20243  -0.13859  -0.12683  -0.11102
 Alpha virt. eigenvalues --   -0.05897  -0.05066  -0.04230  -0.03170  -0.02535
 Alpha virt. eigenvalues --   -0.02173  -0.01661  -0.01076  -0.00289   0.00160
 Alpha virt. eigenvalues --    0.00222   0.00591   0.00805   0.00821   0.01029

  Beta  occ. eigenvalues --  -38.44252 -38.43831 -38.43702 -38.43677 -38.43391
  Beta  occ. eigenvalues --  -38.43294 -38.42996  -2.20236  -2.19854  -2.19594
  Beta  occ. eigenvalues --   -2.19568  -2.19530  -2.19439  -2.19150  -1.14017
  Beta  occ. eigenvalues --   -1.13905  -1.13868  -1.13703  -1.13522  -1.13480
  Beta  occ. eigenvalues --   -1.13387  -1.13372  -1.13341  -1.13283  -1.13258
  Beta  occ. eigenvalues --   -1.13205  -1.13180  -1.13146  -1.13123  -1.13086
  Beta  occ. eigenvalues --   -1.13017  -1.12985  -1.12859  -1.12733  -1.12718
  Beta  occ. eigenvalues --   -0.19423  -0.13647  -0.12477
  Beta virt. eigenvalues --   -0.06961  -0.05727  -0.04921  -0.04006  -0.02602
  Beta virt. eigenvalues --   -0.02008  -0.01732  -0.01060  -0.01003   0.00002
  Beta virt. eigenvalues --    0.00172   0.00294   0.00707   0.00825   0.00878

 Mulliken charges and spin densities:
               1          2
     1  Na  -1.592519   0.408862
     2  Na  -1.767209   0.265375
     3  Na   2.564224   0.111116
     4  Na  -0.013654   0.076205
     5  Na   0.327867  -0.020745
     6  Na   0.339426   0.377544
     7  Na   0.141866  -0.218357
 Sum of Mulliken charges =  -0.00000   1.00000

 Dipole moment (field-independent basis, Debye):
    X=              0.3103    Y=             -0.1093    Z=              0.0139  Tot=              0.3292
 Quadrupole moment (field-independent basis, Debye-Ang):
   XX=            -53.8133   YY=            -65.6377   ZZ=            -72.4566
   XY=              0.2177   XZ=             -0.0658   YZ=             -0.6090

 Normal termination of Gaussian 16 at Mon Nov 13 19:16:55 2023.
