 Gaussian 16, Revision B.01,
 Gaussian 16:  ES64L-G16RevB.01 20-Dec-2017

 -------------------------
 #P B3LYP/6-311+g(d) force
 -------------------------

 ------------------------------
 Gaussian input prepared by ASE
 ------------------------------
 Symbolic Z-matrix:
 Charge =  0 Multiplicity = 2

                         Standard orientation:
 ---------------------------------------------------------------------
 Center     Atomic      Atomic             Coordinates (Angstroms)
 Number     Number       Type             X           Y           Z
 ---------------------------------------------------------------------
      1         11           0        1.753881   -1.512922   -0.174488
      2         11           0        4.497217   -0.486000    0.456437
      3         11           0        2.339932    1.421733   -0.380346
      4         11           0       -0.385115    2.638783   -0.058659
      5         11           0       -3.190926    1.620435    0.235172
      6         11           0       -3.899480   -1.290230    0.077584
      7         11           0       -1.115509   -2.391799   -0.155699
 ---------------------------------------------------------------------

 SCF Done:  E(UB3LYP) =  -1136.10604085     A.U. after   20 cycles

 The electronic state is 2-A.
 Alpha  occ. eigenvalues --  -38.44722 -38.44602 -38.44548 -38.44360 -38.44354
 Alpha  occ. eigenvalues --  -38.43637 -38.43159  -2.20700  -2.20533  -2.20426
 Alpha  occ. eigenvalues --   -2.20339  -2.20249  -2.19529  -2.19041  -1.14480
 Alpha  occ. eigenvalues --   -1.14419  -1.14341  -1.14246  -1.14183  -1.14137
 Alpha  occ. eigenvalues --   -1.14127  -1.14094  -1.14071  -1.13992  -1.13977
 Alpha  occ. eigenvalues --   -1.13958  -1.13927  -1.13876  -1.13858  -1.13211
 Alpha  occ. eigenvalues --   -1.13158  -1.13146  -1.12748  -1.12672  -1.12667
 Alpha  occ. eigenvalues --   -0.17888  -0.15224  -0.12750  -0.11219
 Alpha virt. eigenvalues --   -0.06683  -0.05046  -0.04524  -0.03598  -0.03040
 Alpha virt. eigenvalues --   -0.02702  -0.01727  -0.01324  -0.00802  -0.00276
 Alpha virt. eigenvalues --   -0.00132   0.00280   0.00401   0.00625   0.00889

  Beta  occ. eigenvalues --  -38.44694 -38.44529 -38.44528 -38.44335 -38.44310
  Beta  occ. eigenvalues --  -38.43600 -38.43144  -2.20655  -2.20396  -2.20391
  Beta  occ. eigenvalues --   -2.20269  -2.20205  -2.19466  -2.19015  -1.14432
  Beta  occ. eigenvalues --   -1.14346  -1.14317  -1.14153  -1.14140  -1.14071
  Beta  occ. eigenvalues --   -1.14049  -1.14044  -1.14034  -1.13937  -1.13928
  Beta  occ. eigenvalues --   -1.13912  -1.13861  -1.13848  -1.13819  -1.13142
  Beta  occ. eigenvalues --   -1.13118  -1.13107  -1.12725  -1.12653  -1.12649
  Beta  occ. eigenvalues --   -0.17184  -0.14693  -0.12361
  Beta virt. eigenvalues --   -0.07543  -0.06611  -0.04634  -0.04213  -0.03180
  Beta virt. eigenvalues --   -0.02744  -0.02165  -0.01506  -0.01175  -0.00482
  Beta virt. eigenvalues --   -0.00160   0.00266   0.00434   0.00529   0.00711

 Mulliken charges and spin densities:
               1          2
     1  Na  -1.795707  -0.002223
     2  Na   1.920955   0.435797
     3  Na  -0.984129   0.353471
     4  Na   0.345139  -0.149912
     5  Na  -0.248624   0.218937
     6  Na   0.338475   0.360788
     7  Na   0.423892  -0.216858
 Sum of Mulliken charges =  -0.00000   1.00000

 Dipole moment (field-independent basis, Debye):
    X=              0.8117    Y=             -0.2455    Z=              0.1997  Tot=              0.8712
 Quadrupole moment (field-independent basis, Debye-Ang):
   XX=            -56.4220   YY=            -71.0099   ZZ=            -71.3883
   XY=              0.5802   XZ=              0.7514   YZ=             -0.3654

 Normal termination of Gaussian 16 at Mon Nov 13 14:52:48 2023.
