 Gaussian 16, Revision B.01,
 Gaussian 16:  ES64L-G16RevB.01 20-Dec-2017

 -------------------------
 #P B3LYP/6-311+g(d) force
 -------------------------

 ------------------------------
 Gaussian input prepared by ASE
 ------------------------------
 Symbolic Z-matrix:
 Charge =  0 Multiplicity = 2

                         Standard orientation:
 ---------------------------------------------------------------------
 Center     Atomic      Atomic             Coordinates (Angstroms)
 Number     Number       Type             X           Y           Z
 ---------------------------------------------------------------------
      1         11           0        0.807596    0.172392    1.493781
      2         11           0       -0.959597   -1.766229    0.038440
      3         11           0       -2.177674    0.545846    1.507224
      4         11           0       -2.229563    0.470723   -1.494131
      5         11           0        2.012263   -2.130215   -0.005626
      6         11           0        0.758180    0.147962   -1.501046
      7         11           0        1.788796    2.559520   -0.038640
 ---------------------------------------------------------------------

 SCF Done:  E(UB3LYP) =  -1136.10303959     A.U. after   21 cycles

 The electronic state is 2-A.
 Alpha  occ. eigenvalues --  -38.44245 -38.44243 -38.43580 -38.43564 -38.43276
 Alpha  occ. eigenvalues --  -38.43114 -38.42974  -2.20245  -2.20228  -2.19778
 Alpha  occ. eigenvalues --   -2.19751  -2.19263  -2.19147  -2.19007  -1.14039
 Alpha  occ. eigenvalues --   -1.13992  -1.13972  -1.13859  -1.13826  -1.13747
 Alpha  occ. eigenvalues --   -1.13641  -1.13467  -1.13434  -1.13424  -1.13381
 Alpha  occ. eigenvalues --   -1.13308  -1.12979  -1.12901  -1.12884  -1.12840
 Alpha  occ. eigenvalues --   -1.12806  -1.12680  -1.12672  -1.12668  -1.12607
 Alpha  occ. eigenvalues --   -0.20459  -0.13462  -0.12487  -0.12192
 Alpha virt. eigenvalues --   -0.05082  -0.04435  -0.04186  -0.03534  -0.03137
 Alpha virt. eigenvalues --   -0.02961  -0.01069  -0.00677  -0.00398   0.00343
 Alpha virt. eigenvalues --    0.00758   0.00821   0.00891   0.00939   0.01064

  Beta  occ. eigenvalues --  -38.44197 -38.44194 -38.43515 -38.43500 -38.43274
  Beta  occ. eigenvalues --  -38.43116 -38.42952  -2.20158  -2.20140  -2.19664
  Beta  occ. eigenvalues --   -2.19638  -2.19261  -2.19117  -2.19011  -1.13992
  Beta  occ. eigenvalues --   -1.13899  -1.13888  -1.13801  -1.13767  -1.13683
  Beta  occ. eigenvalues --   -1.13573  -1.13381  -1.13353  -1.13343  -1.13297
  Beta  occ. eigenvalues --   -1.13217  -1.12973  -1.12881  -1.12877  -1.12827
  Beta  occ. eigenvalues --   -1.12711  -1.12679  -1.12666  -1.12654  -1.12612
  Beta  occ. eigenvalues --   -0.19602  -0.13313  -0.11963
  Beta virt. eigenvalues --   -0.08098  -0.04986  -0.04369  -0.03510  -0.03252
  Beta virt. eigenvalues --   -0.02239  -0.02189  -0.01028  -0.00639  -0.00083
  Beta virt. eigenvalues --    0.00377   0.00764   0.00944   0.00956   0.00980

 Mulliken charges and spin densities:
               1          2
     1  Na  -0.112665   0.125017
     2  Na  -0.517741   0.453120
     3  Na   0.251768   0.082168
     4  Na   0.258522   0.088583
     5  Na   0.394738   0.069358
     6  Na  -0.087449   0.117208
     7  Na  -0.187173   0.064547
 Sum of Mulliken charges =  -0.00000   1.00000

 Dipole moment (field-independent basis, Debye):
    X=             -0.3703    Y=              0.2466    Z=             -0.0084  Tot=              0.4450
 Quadrupole moment (field-independent basis, Debye-Ang):
   XX=            -61.4036   YY=            -68.3460   ZZ=            -65.5003
   XY=             -2.5604   XZ=              0.0212   YZ=             -0.0034

 Normal termination of Gaussian 16 at Mon Nov 13 19:17:16 2023.
