 Gaussian 16, Revision B.01,
 Gaussian 16:  ES64L-G16RevB.01 20-Dec-2017

 -------------------------
 #P B3LYP/6-311+g(d) force
 -------------------------

 ------------------------------
 Gaussian input prepared by ASE
 ------------------------------
 Symbolic Z-matrix:
 Charge =  0 Multiplicity = 2

                         Standard orientation:
 ---------------------------------------------------------------------
 Center     Atomic      Atomic             Coordinates (Angstroms)
 Number     Number       Type             X           Y           Z
 ---------------------------------------------------------------------
      1         11           0       -1.665226   -1.911595   -0.537854
      2         11           0        2.552411   -1.576787   -1.748718
      3         11           0       -3.610132    0.208748    0.286495
      4         11           0       -1.504738    2.042852   -0.788099
      5         11           0        2.545250    2.276686    0.246940
      6         11           0        0.606150    0.013964   -0.111840
      7         11           0        1.076285   -1.053868    2.653076
 ---------------------------------------------------------------------

 SCF Done:  E(UB3LYP) =  -1136.10446860     A.U. after   23 cycles

 The electronic state is 2-A.
 Alpha  occ. eigenvalues --  -38.44737 -38.44670 -38.44646 -38.44058 -38.43925
 Alpha  occ. eigenvalues --  -38.43742 -38.42591  -2.20625  -2.20494  -2.20482
 Alpha  occ. eigenvalues --   -2.19864  -2.19811  -2.19625  -2.18787  -1.14321
 Alpha  occ. eigenvalues --   -1.14314  -1.14256  -1.14188  -1.14176  -1.14118
 Alpha  occ. eigenvalues --   -1.14093  -1.14090  -1.14066  -1.13586  -1.13545
 Alpha  occ. eigenvalues --   -1.13511  -1.13486  -1.13459  -1.13419  -1.13369
 Alpha  occ. eigenvalues --   -1.13284  -1.13217  -1.12508  -1.12464  -1.12389
 Alpha  occ. eigenvalues --   -0.18277  -0.13820  -0.11346  -0.11274
 Alpha virt. eigenvalues --   -0.06167  -0.05784  -0.03842  -0.03380  -0.02669
 Alpha virt. eigenvalues --   -0.02425  -0.01965  -0.01337  -0.00528  -0.00112
 Alpha virt. eigenvalues --    0.00113   0.00201   0.00529   0.00800   0.00837

  Beta  occ. eigenvalues --  -38.44743 -38.44594 -38.44534 -38.44055 -38.43929
  Beta  occ. eigenvalues --  -38.43744 -38.42569  -2.20635  -2.20353  -2.20276
  Beta  occ. eigenvalues --   -2.19859  -2.19820  -2.19629  -2.18759  -1.14333
  Beta  occ. eigenvalues --   -1.14321  -1.14259  -1.14092  -1.14037  -1.14020
  Beta  occ. eigenvalues --   -1.13994  -1.13953  -1.13923  -1.13586  -1.13552
  Beta  occ. eigenvalues --   -1.13495  -1.13484  -1.13452  -1.13425  -1.13371
  Beta  occ. eigenvalues --   -1.13284  -1.13219  -1.12463  -1.12391  -1.12379
  Beta  occ. eigenvalues --   -0.17731  -0.13488  -0.11146
  Beta virt. eigenvalues --   -0.07260  -0.06017  -0.05604  -0.03446  -0.03064
  Beta virt. eigenvalues --   -0.02102  -0.02029  -0.01604  -0.01073  -0.00203
  Beta virt. eigenvalues --   -0.00053   0.00142   0.00248   0.00684   0.00799

 Mulliken charges and spin densities:
               1          2
     1  Na   0.924923   0.109406
     2  Na   0.450284   0.503033
     3  Na   0.372781   0.016442
     4  Na  -0.178964  -0.288654
     5  Na   0.668240  -0.035275
     6  Na  -2.350368   0.155345
     7  Na   0.113104   0.539703
 Sum of Mulliken charges =  -0.00000   1.00000

 Dipole moment (field-independent basis, Debye):
    X=             -0.1976    Y=             -0.2013    Z=              0.3581  Tot=              0.4559
 Quadrupole moment (field-independent basis, Debye-Ang):
   XX=            -51.4818   YY=            -71.7613   ZZ=            -68.1677
   XY=              1.0304   XZ=             -1.8357   YZ=              1.0489

 Normal termination of Gaussian 16 at Mon Nov 13 18:31:21 2023.
