 Gaussian 16, Revision B.01,
 Gaussian 16:  ES64L-G16RevB.01 20-Dec-2017

 -------------------------
 #P B3LYP/6-311+g(d) force
 -------------------------

 ------------------------------
 Gaussian input prepared by ASE
 ------------------------------
 Symbolic Z-matrix:
 Charge =  0 Multiplicity = 2

                         Standard orientation:
 ---------------------------------------------------------------------
 Center     Atomic      Atomic             Coordinates (Angstroms)
 Number     Number       Type             X           Y           Z
 ---------------------------------------------------------------------
      1         11           0       -0.744570    1.195869    1.068871
      2         11           0        0.881017    1.721764   -0.813443
      3         11           0        1.939890   -0.871930   -0.847888
      4         11           0       -0.357354   -1.815207    0.663356
      5         11           0       -2.647112   -0.042386   -0.097105
      6         11           0       -0.557944   -0.285531   -1.515826
      7         11           0        1.486073    0.097420    1.542035
 ---------------------------------------------------------------------

 SCF Done:  E(UB3LYP) =  -1136.01378663     A.U. after   25 cycles

 The electronic state is 2-A.
 Alpha  occ. eigenvalues --  -38.45660 -38.45444 -38.45017 -38.45010 -38.44600
 Alpha  occ. eigenvalues --  -38.44229 -38.43191  -2.22190  -2.21778  -2.21451
 Alpha  occ. eigenvalues --   -2.21151  -2.20867  -2.20521  -2.19464  -1.16257
 Alpha  occ. eigenvalues --   -1.16065  -1.15990  -1.15846  -1.15616  -1.15443
 Alpha  occ. eigenvalues --   -1.15298  -1.15206  -1.14842  -1.14776  -1.14656
 Alpha  occ. eigenvalues --   -1.14554  -1.14506  -1.14438  -1.14415  -1.14118
 Alpha  occ. eigenvalues --   -1.14041  -1.13948  -1.13200  -1.13112  -1.13003
 Alpha  occ. eigenvalues --   -0.22785  -0.14206  -0.13607  -0.12519
 Alpha virt. eigenvalues --   -0.05445  -0.04187  -0.04110  -0.03718  -0.03233
 Alpha virt. eigenvalues --   -0.02961  -0.00911  -0.00331  -0.00184   0.00267
 Alpha virt. eigenvalues --    0.00922   0.01048   0.01112   0.01212   0.01314

  Beta  occ. eigenvalues --  -38.45571 -38.45370 -38.45011 -38.44955 -38.44565
  Beta  occ. eigenvalues --  -38.44196 -38.43166  -2.22035  -2.21651  -2.21362
  Beta  occ. eigenvalues --   -2.21138  -2.20809  -2.20469  -2.19425  -1.16133
  Beta  occ. eigenvalues --   -1.15987  -1.15889  -1.15734  -1.15538  -1.15366
  Beta  occ. eigenvalues --   -1.15223  -1.15126  -1.14768  -1.14732  -1.14638
  Beta  occ. eigenvalues --   -1.14502  -1.14466  -1.14403  -1.14337  -1.14071
  Beta  occ. eigenvalues --   -1.13967  -1.13912  -1.13184  -1.13032  -1.12974
  Beta  occ. eigenvalues --   -0.21928  -0.13934  -0.12238
  Beta virt. eigenvalues --   -0.08977  -0.05384  -0.03699  -0.03488  -0.03340
  Beta virt. eigenvalues --   -0.02397  -0.02166  -0.00880  -0.00185  -0.00078
  Beta virt. eigenvalues --    0.00303   0.00979   0.01109   0.01161   0.01317

 Mulliken charges and spin densities:
               1          2
     1  Na  -0.557427   0.378410
     2  Na   0.155736   0.124308
     3  Na   0.179460  -0.078571
     4  Na  -0.658818   0.312871
     5  Na   0.991340  -0.004826
     6  Na  -0.650518   0.128321
     7  Na   0.540227   0.139486
 Sum of Mulliken charges =  -0.00000   1.00000

 Dipole moment (field-independent basis, Debye):
    X=             -0.0109    Y=             -0.2016    Z=              0.1451  Tot=              0.2486
 Quadrupole moment (field-independent basis, Debye-Ang):
   XX=            -61.1568   YY=            -74.9518   ZZ=            -63.8080
   XY=             -0.0002   XZ=             -0.5216   YZ=             -0.1398

 Normal termination of Gaussian 16 at Mon Nov 13 20:24:32 2023.
