 Gaussian 16, Revision B.01,
 Gaussian 16:  ES64L-G16RevB.01 20-Dec-2017

 -------------------------
 #P B3LYP/6-311+g(d) force
 -------------------------

 ------------------------------
 Gaussian input prepared by ASE
 ------------------------------
 Symbolic Z-matrix:
 Charge =  0 Multiplicity = 2

                         Standard orientation:
 ---------------------------------------------------------------------
 Center     Atomic      Atomic             Coordinates (Angstroms)
 Number     Number       Type             X           Y           Z
 ---------------------------------------------------------------------
      1         11           0        0.591368    1.680556   -0.390095
      2         11           0        1.478335   -0.806354   -1.817062
      3         11           0        3.183651    0.380433    0.341211
      4         11           0        0.734511   -0.158098    1.981152
      5         11           0       -0.434744   -2.158926    0.067536
      6         11           0       -3.162733   -0.911687    0.041465
      7         11           0       -2.390389    1.974076   -0.224207
 ---------------------------------------------------------------------

 SCF Done:  E(UB3LYP) =  -1136.10372145     A.U. after   23 cycles

 The electronic state is 2-A.
 Alpha  occ. eigenvalues --  -38.45206 -38.44984 -38.44535 -38.44349 -38.43448
 Alpha  occ. eigenvalues --  -38.43286 -38.42694  -2.21189  -2.20854  -2.20553
 Alpha  occ. eigenvalues --   -2.20361  -2.19355  -2.19330  -2.18676  -1.14917
 Alpha  occ. eigenvalues --   -1.14886  -1.14809  -1.14547  -1.14528  -1.14495
 Alpha  occ. eigenvalues --   -1.14245  -1.14185  -1.14148  -1.14054  -1.13997
 Alpha  occ. eigenvalues --   -1.13964  -1.13144  -1.13038  -1.13017  -1.12987
 Alpha  occ. eigenvalues --   -1.12954  -1.12880  -1.12358  -1.12345  -1.12309
 Alpha  occ. eigenvalues --   -0.19846  -0.14315  -0.11843  -0.11713
 Alpha virt. eigenvalues --   -0.06773  -0.05026  -0.03878  -0.03588  -0.03012
 Alpha virt. eigenvalues --   -0.02559  -0.02204  -0.00556  -0.00270   0.00136
 Alpha virt. eigenvalues --    0.00193   0.00324   0.00482   0.00805   0.00963

  Beta  occ. eigenvalues --  -38.45186 -38.44992 -38.44435 -38.44264 -38.43451
  Beta  occ. eigenvalues --  -38.43265 -38.42682  -2.21160  -2.20869  -2.20371
  Beta  occ. eigenvalues --   -2.20206  -2.19342  -2.19321  -2.18659  -1.14903
  Beta  occ. eigenvalues --   -1.14803  -1.14793  -1.14563  -1.14538  -1.14498
  Beta  occ. eigenvalues --   -1.14130  -1.14046  -1.14024  -1.13952  -1.13884
  Beta  occ. eigenvalues --   -1.13857  -1.13142  -1.13022  -1.12993  -1.12963
  Beta  occ. eigenvalues --   -1.12928  -1.12874  -1.12348  -1.12308  -1.12290
  Beta  occ. eigenvalues --   -0.19048  -0.14113  -0.11591
  Beta virt. eigenvalues --   -0.07594  -0.06622  -0.04912  -0.03579  -0.03114
  Beta virt. eigenvalues --   -0.02170  -0.02028  -0.01735  -0.00524  -0.00014
  Beta virt. eigenvalues --    0.00124   0.00236   0.00337   0.00751   0.00838

 Mulliken charges and spin densities:
               1          2
     1  Na  -0.400620   0.392009
     2  Na  -0.041636   0.307020
     3  Na   1.126241  -0.021285
     4  Na  -0.147830   0.441745
     5  Na  -0.009903   0.045694
     6  Na  -0.308143  -0.009908
     7  Na  -0.218109  -0.155275
 Sum of Mulliken charges =  -0.00000   1.00000

 Dipole moment (field-independent basis, Debye):
    X=              0.3930    Y=             -0.2910    Z=              0.1328  Tot=              0.5067
 Quadrupole moment (field-independent basis, Debye-Ang):
   XX=            -50.0776   YY=            -76.7550   ZZ=            -69.8262
   XY=              1.1535   XZ=              0.1242   YZ=              0.6727

 Normal termination of Gaussian 16 at Mon Nov 13 15:52:09 2023.
