 Gaussian 16, Revision B.01,
 Gaussian 16:  ES64L-G16RevB.01 20-Dec-2017

 -------------------------
 #P B3LYP/6-311+g(d) force
 -------------------------

 ------------------------------
 Gaussian input prepared by ASE
 ------------------------------
 Symbolic Z-matrix:
 Charge =  0 Multiplicity = 2

                         Standard orientation:
 ---------------------------------------------------------------------
 Center     Atomic      Atomic             Coordinates (Angstroms)
 Number     Number       Type             X           Y           Z
 ---------------------------------------------------------------------
      1         11           0       -1.058403    0.808044   -1.211152
      2         11           0        0.535400   -1.716600   -0.961217
      3         11           0       -2.391053   -1.721623   -0.301472
      4         11           0       -2.066984    0.574658    1.602117
      5         11           0        3.143907   -1.403037    0.484166
      6         11           0        0.886356    0.491696    1.042993
      7         11           0        0.950777    2.966862   -0.655434
 ---------------------------------------------------------------------

 SCF Done:  E(UB3LYP) =  -1136.10486884     A.U. after   23 cycles

 The electronic state is 2-A.
 Alpha  occ. eigenvalues --  -38.44230 -38.43882 -38.43826 -38.43691 -38.43384
 Alpha  occ. eigenvalues --  -38.43351 -38.43153  -2.20231  -2.19817  -2.19774
 Alpha  occ. eigenvalues --   -2.19592  -2.19573  -2.19419  -2.19330  -1.13975
 Alpha  occ. eigenvalues --   -1.13903  -1.13840  -1.13595  -1.13525  -1.13482
 Alpha  occ. eigenvalues --   -1.13455  -1.13436  -1.13422  -1.13388  -1.13344
 Alpha  occ. eigenvalues --   -1.13285  -1.13230  -1.13185  -1.13132  -1.13088
 Alpha  occ. eigenvalues --   -1.13019  -1.12996  -1.12967  -1.12940  -1.12868
 Alpha  occ. eigenvalues --   -0.20008  -0.13538  -0.12734  -0.11442
 Alpha virt. eigenvalues --   -0.05639  -0.04957  -0.03993  -0.03354  -0.03008
 Alpha virt. eigenvalues --   -0.02333  -0.01419  -0.01085  -0.00242   0.00270
 Alpha virt. eigenvalues --    0.00363   0.00658   0.00777   0.00885   0.01033

  Beta  occ. eigenvalues --  -38.44157 -38.43875 -38.43815 -38.43677 -38.43333
  Beta  occ. eigenvalues --  -38.43319 -38.43117  -2.20097  -2.19802  -2.19761
  Beta  occ. eigenvalues --   -2.19565  -2.19488  -2.19364  -2.19268  -1.13896
  Beta  occ. eigenvalues --   -1.13806  -1.13746  -1.13563  -1.13510  -1.13472
  Beta  occ. eigenvalues --   -1.13439  -1.13392  -1.13384  -1.13375  -1.13308
  Beta  occ. eigenvalues --   -1.13259  -1.13177  -1.13132  -1.13091  -1.13037
  Beta  occ. eigenvalues --   -1.12981  -1.12939  -1.12916  -1.12864  -1.12830
  Beta  occ. eigenvalues --   -0.19254  -0.13297  -0.12429
  Beta virt. eigenvalues --   -0.07390  -0.05424  -0.04878  -0.03762  -0.02815
  Beta virt. eigenvalues --   -0.02370  -0.01496  -0.01268  -0.00953   0.00032
  Beta virt. eigenvalues --    0.00294   0.00397   0.00759   0.00810   0.00947

 Mulliken charges and spin densities:
               1          2
     1  Na  -0.269454   0.322616
     2  Na  -0.508526   0.272933
     3  Na   0.508591  -0.067183
     4  Na   0.119200   0.318408
     5  Na   0.558813  -0.023553
     6  Na  -0.473533   0.146125
     7  Na   0.064907   0.030654
 Sum of Mulliken charges =  -0.00000   1.00000

 Dipole moment (field-independent basis, Debye):
    X=              0.0482    Y=              0.0718    Z=              0.1083  Tot=              0.1386
 Quadrupole moment (field-independent basis, Debye-Ang):
   XX=            -57.6759   YY=            -64.7546   ZZ=            -70.6958
   XY=              2.0573   XZ=             -0.5162   YZ=             -0.2142

 Normal termination of Gaussian 16 at Mon Nov 13 19:03:03 2023.
