 Gaussian 16, Revision B.01,
 Gaussian 16:  ES64L-G16RevB.01 20-Dec-2017

 -------------------------
 #P B3LYP/6-311+g(d) force
 -------------------------

 ------------------------------
 Gaussian input prepared by ASE
 ------------------------------
 Symbolic Z-matrix:
 Charge =  0 Multiplicity = 2

                         Standard orientation:
 ---------------------------------------------------------------------
 Center     Atomic      Atomic             Coordinates (Angstroms)
 Number     Number       Type             X           Y           Z
 ---------------------------------------------------------------------
      1         11           0       -0.714487   -0.051031    1.519869
      2         11           0       -0.013708   -2.218631   -0.415946
      3         11           0        2.133815   -0.970520    1.265097
      4         11           0        2.636449    0.829342   -1.090395
      5         11           0       -2.735567   -0.985420   -0.487964
      6         11           0       -0.350841    0.607634   -1.380496
      7         11           0       -0.955661    2.788626    0.589835
 ---------------------------------------------------------------------

 SCF Done:  E(UB3LYP) =  -1136.10748551     A.U. after   21 cycles

 The electronic state is 2-A.
 Alpha  occ. eigenvalues --  -38.44207 -38.43952 -38.43707 -38.43480 -38.43355
 Alpha  occ. eigenvalues --  -38.43211 -38.43148  -2.20108  -2.19939  -2.19705
 Alpha  occ. eigenvalues --   -2.19678  -2.19411  -2.19253  -2.19228  -1.13833
 Alpha  occ. eigenvalues --   -1.13808  -1.13743  -1.13701  -1.13624  -1.13558
 Alpha  occ. eigenvalues --   -1.13544  -1.13413  -1.13364  -1.13326  -1.13298
 Alpha  occ. eigenvalues --   -1.13223  -1.13149  -1.13072  -1.13018  -1.12926
 Alpha  occ. eigenvalues --   -1.12897  -1.12864  -1.12842  -1.12822  -1.12797
 Alpha  occ. eigenvalues --   -0.20186  -0.13477  -0.12459  -0.11796
 Alpha virt. eigenvalues --   -0.05395  -0.04522  -0.04049  -0.03463  -0.03122
 Alpha virt. eigenvalues --   -0.02659  -0.01387  -0.00764  -0.00261   0.00345
 Alpha virt. eigenvalues --    0.00563   0.00650   0.00829   0.00926   0.01037

  Beta  occ. eigenvalues --  -38.44176 -38.43940 -38.43673 -38.43408 -38.43344
  Beta  occ. eigenvalues --  -38.43154 -38.43131  -2.20052  -2.19920  -2.19644
  Beta  occ. eigenvalues --   -2.19551  -2.19312  -2.19235  -2.19203  -1.13783
  Beta  occ. eigenvalues --   -1.13770  -1.13721  -1.13664  -1.13583  -1.13543
  Beta  occ. eigenvalues --   -1.13477  -1.13339  -1.13315  -1.13261  -1.13246
  Beta  occ. eigenvalues --   -1.13139  -1.13089  -1.13005  -1.12943  -1.12901
  Beta  occ. eigenvalues --   -1.12862  -1.12831  -1.12814  -1.12794  -1.12758
  Beta  occ. eigenvalues --   -0.19430  -0.13224  -0.12147
  Beta virt. eigenvalues --   -0.07661  -0.05318  -0.04452  -0.03778  -0.02964
  Beta virt. eigenvalues --   -0.02377  -0.01599  -0.01298  -0.00696  -0.00015
  Beta virt. eigenvalues --    0.00381   0.00577   0.00672   0.00868   0.00999

 Mulliken charges and spin densities:
               1          2
     1  Na  -0.232934   0.214594
     2  Na  -0.148318   0.271873
     3  Na   0.425092   0.117340
     4  Na  -0.153115   0.092559
     5  Na   0.940009   0.136556
     6  Na  -0.828677   0.077505
     7  Na  -0.002058   0.089573
 Sum of Mulliken charges =  -0.00000   1.00000

 Dipole moment (field-independent basis, Debye):
    X=              0.0615    Y=              0.1522    Z=             -0.0524  Tot=              0.1723
 Quadrupole moment (field-independent basis, Debye-Ang):
   XX=            -57.8260   YY=            -67.2652   ZZ=            -69.0330
   XY=              0.9995   XZ=              0.3009   YZ=              0.7251

 Normal termination of Gaussian 16 at Mon Nov 13 19:03:25 2023.
