 Gaussian 16, Revision B.01,
 Gaussian 16:  ES64L-G16RevB.01 20-Dec-2017

 -------------------------
 #P B3LYP/6-311+g(d) force
 -------------------------

 ------------------------------
 Gaussian input prepared by ASE
 ------------------------------
 Symbolic Z-matrix:
 Charge =  0 Multiplicity = 2

                         Standard orientation:
 ---------------------------------------------------------------------
 Center     Atomic      Atomic             Coordinates (Angstroms)
 Number     Number       Type             X           Y           Z
 ---------------------------------------------------------------------
      1         11           0        0.574017   -0.968449    1.255401
      2         11           0       -1.239791   -2.063042   -0.856068
      3         11           0       -2.361528   -0.319487    1.313049
      4         11           0       -2.183148    1.865890   -0.741659
      5         11           0        0.373463    0.419982   -1.391541
      6         11           0        1.826671    1.728518    0.884910
      7         11           0        3.010316   -0.663412   -0.464093
 ---------------------------------------------------------------------

 SCF Done:  E(UB3LYP) =  -1136.10375788     A.U. after   22 cycles

 The electronic state is 2-A.
 Alpha  occ. eigenvalues --  -38.44748 -38.44206 -38.43992 -38.43292 -38.43289
 Alpha  occ. eigenvalues --  -38.43281 -38.43140  -2.20727  -2.20205  -2.19979
 Alpha  occ. eigenvalues --   -2.19487  -2.19326  -2.19284  -2.19190  -1.14475
 Alpha  occ. eigenvalues --   -1.14395  -1.14346  -1.13926  -1.13876  -1.13835
 Alpha  occ. eigenvalues --   -1.13743  -1.13636  -1.13563  -1.13292  -1.13188
 Alpha  occ. eigenvalues --   -1.13146  -1.13044  -1.12961  -1.12947  -1.12905
 Alpha  occ. eigenvalues --   -1.12894  -1.12862  -1.12829  -1.12818  -1.12786
 Alpha  occ. eigenvalues --   -0.20202  -0.14431  -0.11623  -0.11570
 Alpha virt. eigenvalues --   -0.05975  -0.04785  -0.04405  -0.03245  -0.02572
 Alpha virt. eigenvalues --   -0.02417  -0.01790  -0.00681  -0.00303   0.00312
 Alpha virt. eigenvalues --    0.00448   0.00541   0.00734   0.00869   0.00898

  Beta  occ. eigenvalues --  -38.44739 -38.44171 -38.43966 -38.43280 -38.43269
  Beta  occ. eigenvalues --  -38.43213 -38.43092  -2.20714  -2.20142  -2.19934
  Beta  occ. eigenvalues --   -2.19368  -2.19255  -2.19235  -2.19177  -1.14469
  Beta  occ. eigenvalues --   -1.14366  -1.14330  -1.13882  -1.13819  -1.13793
  Beta  occ. eigenvalues --   -1.13712  -1.13580  -1.13536  -1.13228  -1.13110
  Beta  occ. eigenvalues --   -1.13057  -1.12991  -1.12897  -1.12878  -1.12867
  Beta  occ. eigenvalues --   -1.12849  -1.12836  -1.12795  -1.12775  -1.12762
  Beta  occ. eigenvalues --   -0.19424  -0.14186  -0.11366
  Beta virt. eigenvalues --   -0.07465  -0.05855  -0.04742  -0.03706  -0.03026
  Beta virt. eigenvalues --   -0.01944  -0.01730  -0.01396  -0.00589  -0.00050
  Beta virt. eigenvalues --    0.00354   0.00479   0.00544   0.00848   0.00919

 Mulliken charges and spin densities:
               1          2
     1  Na  -0.021781   0.452183
     2  Na  -0.259972   0.141365
     3  Na   0.028551  -0.008103
     4  Na   0.068196   0.072753
     5  Na  -0.473313   0.171453
     6  Na  -0.334804   0.111449
     7  Na   0.993122   0.058900
 Sum of Mulliken charges =  -0.00000   1.00000

 Dipole moment (field-independent basis, Debye):
    X=              0.5776    Y=             -0.0431    Z=              0.0944  Tot=              0.5869
 Quadrupole moment (field-independent basis, Debye-Ang):
   XX=            -52.6057   YY=            -72.3337   ZZ=            -69.0704
   XY=             -0.0449   XZ=             -1.1708   YZ=              3.2625

 Normal termination of Gaussian 16 at Mon Nov 13 17:46:30 2023.
