 Gaussian 16, Revision B.01,
 Gaussian 16:  ES64L-G16RevB.01 20-Dec-2017

 -------------------------
 #P B3LYP/6-311+g(d) force
 -------------------------

 ------------------------------
 Gaussian input prepared by ASE
 ------------------------------
 Symbolic Z-matrix:
 Charge =  0 Multiplicity = 2

                         Standard orientation:
 ---------------------------------------------------------------------
 Center     Atomic      Atomic             Coordinates (Angstroms)
 Number     Number       Type             X           Y           Z
 ---------------------------------------------------------------------
      1         11           0        0.942522    1.728928   -0.118762
      2         11           0        0.936570   -0.759872    1.555104
      3         11           0        3.383822   -0.004978    0.000058
      4         11           0        0.937755   -0.965179   -1.435787
      5         11           0       -2.068423   -0.992552   -1.419393
      6         11           0       -2.067774   -0.731721    1.569142
      7         11           0       -2.064472    1.725373   -0.150361
 ---------------------------------------------------------------------

 SCF Done:  E(UB3LYP) =  -1136.09651589     A.U. after   47 cycles

 The electronic state is 2-A.
 Alpha  occ. eigenvalues --  -38.45309 -38.44420 -38.44415 -38.44189 -38.44137
 Alpha  occ. eigenvalues --  -38.43107 -38.42731  -2.21289  -2.20421  -2.20405
 Alpha  occ. eigenvalues --   -2.20274  -2.20219  -2.19098  -2.18798  -1.15016
 Alpha  occ. eigenvalues --   -1.14963  -1.14905  -1.14220  -1.14186  -1.14150
 Alpha  occ. eigenvalues --   -1.14070  -1.14050  -1.14031  -1.13928  -1.13897
 Alpha  occ. eigenvalues --   -1.13866  -1.13856  -1.13813  -1.13758  -1.12802
 Alpha  occ. eigenvalues --   -1.12759  -1.12749  -1.12501  -1.12448  -1.12388
 Alpha  occ. eigenvalues --   -0.20437  -0.15016  -0.12327  -0.11037
 Alpha virt. eigenvalues --   -0.06667  -0.05047  -0.04446  -0.03648  -0.02483
 Alpha virt. eigenvalues --   -0.02283  -0.02179  -0.00612  -0.00293   0.00152
 Alpha virt. eigenvalues --    0.00254   0.00445   0.00649   0.00997   0.01018

  Beta  occ. eigenvalues --  -38.45306 -38.44373 -38.44369 -38.44127 -38.44076
  Beta  occ. eigenvalues --  -38.43100 -38.42724  -2.21285  -2.20338  -2.20322
  Beta  occ. eigenvalues --   -2.20163  -2.20110  -2.19089  -2.18790  -1.15014
  Beta  occ. eigenvalues --   -1.14940  -1.14907  -1.14167  -1.14108  -1.14069
  Beta  occ. eigenvalues --   -1.13998  -1.13989  -1.13971  -1.13869  -1.13818
  Beta  occ. eigenvalues --   -1.13786  -1.13780  -1.13730  -1.13675  -1.12801
  Beta  occ. eigenvalues --   -1.12763  -1.12709  -1.12501  -1.12403  -1.12387
  Beta  occ. eigenvalues --   -0.19675  -0.14833  -0.10805
  Beta virt. eigenvalues --   -0.08085  -0.06513  -0.04460  -0.04252  -0.03042
  Beta virt. eigenvalues --   -0.02133  -0.01769  -0.01672  -0.00275  -0.00186
  Beta virt. eigenvalues --    0.00183   0.00335   0.00631   0.00654   0.01058

 Mulliken charges and spin densities:
               1          2
     1  Na  -0.932969   0.076207
     2  Na  -0.750095   0.120197
     3  Na   2.700765   0.296980
     4  Na  -0.751735   0.124476
     5  Na   0.005263   0.128187
     6  Na  -0.000742   0.137809
     7  Na  -0.270486   0.116145
 Sum of Mulliken charges =  -0.00000   1.00000

 Dipole moment (field-independent basis, Debye):
    X=              0.8167    Y=             -0.3392    Z=              0.0196  Tot=              0.8846
 Quadrupole moment (field-independent basis, Debye-Ang):
   XX=            -47.5877   YY=            -81.5159   ZZ=            -66.8169
   XY=              0.3455   XZ=             -0.0284   YZ=              1.2807

 Normal termination of Gaussian 16 at Mon Nov 13 18:04:56 2023.
