 Gaussian 16, Revision B.01,
 Gaussian 16:  ES64L-G16RevB.01 20-Dec-2017

 -------------------------
 #P B3LYP/6-311+g(d) force
 -------------------------

 ------------------------------
 Gaussian input prepared by ASE
 ------------------------------
 Symbolic Z-matrix:
 Charge =  0 Multiplicity = 2

                         Standard orientation:
 ---------------------------------------------------------------------
 Center     Atomic      Atomic             Coordinates (Angstroms)
 Number     Number       Type             X           Y           Z
 ---------------------------------------------------------------------
      1         11           0        1.587894    1.537216   -0.535297
      2         11           0       -2.804820   -0.186309   -1.149107
      3         11           0       -1.310630    2.210363   -0.134816
      4         11           0       -2.132756    0.031367    1.759940
      5         11           0       -1.008302   -2.222111    0.128762
      6         11           0        1.759896   -1.450471   -0.747016
      7         11           0        3.908717    0.079946    0.677534
 ---------------------------------------------------------------------

 SCF Done:  E(UB3LYP) =  -1136.09864131     A.U. after   24 cycles

 The electronic state is 2-A.
 Alpha  occ. eigenvalues --  -38.45808 -38.44997 -38.44148 -38.43993 -38.43929
 Alpha  occ. eigenvalues --  -38.43058 -38.43050  -2.21771  -2.20899  -2.20159
 Alpha  occ. eigenvalues --   -2.19966  -2.19897  -2.19037  -2.19026  -1.15491
 Alpha  occ. eigenvalues --   -1.15435  -1.15403  -1.14601  -1.14560  -1.14514
 Alpha  occ. eigenvalues --   -1.13840  -1.13805  -1.13781  -1.13746  -1.13659
 Alpha  occ. eigenvalues --   -1.13598  -1.13587  -1.13532  -1.13481  -1.12707
 Alpha  occ. eigenvalues --   -1.12700  -1.12697  -1.12687  -1.12671  -1.12665
 Alpha  occ. eigenvalues --   -0.19149  -0.15224  -0.12100  -0.10370
 Alpha virt. eigenvalues --   -0.07174  -0.05392  -0.04316  -0.03781  -0.02512
 Alpha virt. eigenvalues --   -0.02355  -0.01906  -0.00941  -0.00432  -0.00115
 Alpha virt. eigenvalues --   -0.00037   0.00187   0.00399   0.00705   0.00797

  Beta  occ. eigenvalues --  -38.45798 -38.44960 -38.44071 -38.43973 -38.43913
  Beta  occ. eigenvalues --  -38.43044 -38.43034  -2.21757  -2.20828  -2.20016
  Beta  occ. eigenvalues --   -2.19935  -2.19874  -2.19016  -2.19004  -1.15483
  Beta  occ. eigenvalues --   -1.15431  -1.15350  -1.14559  -1.14511  -1.14464
  Beta  occ. eigenvalues --   -1.13750  -1.13730  -1.13704  -1.13682  -1.13636
  Beta  occ. eigenvalues --   -1.13564  -1.13545  -1.13488  -1.13468  -1.12701
  Beta  occ. eigenvalues --   -1.12691  -1.12689  -1.12678  -1.12608  -1.12597
  Beta  occ. eigenvalues --   -0.18512  -0.14856  -0.11784
  Beta virt. eigenvalues --   -0.06885  -0.06731  -0.05306  -0.03818  -0.03596
  Beta virt. eigenvalues --   -0.02332  -0.01755  -0.01167  -0.00824  -0.00090
  Beta virt. eigenvalues --   -0.00032   0.00020   0.00277   0.00606   0.00786

 Mulliken charges and spin densities:
               1          2
     1  Na  -0.695160   0.014833
     2  Na   0.537652   0.422473
     3  Na   0.088989   0.145788
     4  Na  -0.581642   0.149026
     5  Na   0.210760   0.179034
     6  Na  -0.641655  -0.151667
     7  Na   1.081056   0.240513
 Sum of Mulliken charges =  -0.00000   1.00000

 Dipole moment (field-independent basis, Debye):
    X=              0.4626    Y=             -0.0627    Z=             -0.2685  Tot=              0.5385
 Quadrupole moment (field-independent basis, Debye-Ang):
   XX=            -53.1113   YY=            -75.5236   ZZ=            -69.6982
   XY=             -0.3154   XZ=              6.4345   YZ=              0.5776

 Normal termination of Gaussian 16 at Mon Nov 13 16:24:21 2023.
