 Gaussian 16, Revision B.01,
 Gaussian 16:  ES64L-G16RevB.01 20-Dec-2017

 -------------------------
 #P B3LYP/6-311+g(d) force
 -------------------------

 ------------------------------
 Gaussian input prepared by ASE
 ------------------------------
 Symbolic Z-matrix:
 Charge =  0 Multiplicity = 2

                         Standard orientation:
 ---------------------------------------------------------------------
 Center     Atomic      Atomic             Coordinates (Angstroms)
 Number     Number       Type             X           Y           Z
 ---------------------------------------------------------------------
      1         11           0       -2.902951    1.577824    0.379536
      2         11           0        1.933489   -1.082427   -1.286940
      3         11           0        3.997716   -0.913623    0.883501
      4         11           0        2.869466    1.593076   -0.317011
      5         11           0       -0.031410    0.849646   -0.095358
      6         11           0       -1.873393   -1.086388    1.277046
      7         11           0       -3.992917   -0.938109   -0.840774
 ---------------------------------------------------------------------

 SCF Done:  E(UB3LYP) =  -1136.08227298     A.U. after   30 cycles

 The electronic state is 2-A.
 Alpha  occ. eigenvalues --  -38.45033 -38.44905 -38.44548 -38.44496 -38.44072
 Alpha  occ. eigenvalues --  -38.43823 -38.41855  -2.21019  -2.20893  -2.20542
 Alpha  occ. eigenvalues --   -2.20494  -2.19970  -2.19725  -2.17954  -1.14754
 Alpha  occ. eigenvalues --   -1.14689  -1.14653  -1.14641  -1.14562  -1.14528
 Alpha  occ. eigenvalues --   -1.14219  -1.14200  -1.14180  -1.14160  -1.14150
 Alpha  occ. eigenvalues --   -1.14108  -1.13629  -1.13622  -1.13593  -1.13391
 Alpha  occ. eigenvalues --   -1.13381  -1.13348  -1.11687  -1.11595  -1.11581
 Alpha  occ. eigenvalues --   -0.18751  -0.16037  -0.10579  -0.10359
 Alpha virt. eigenvalues --   -0.07144  -0.06244  -0.04601  -0.03595  -0.02657
 Alpha virt. eigenvalues --   -0.01791  -0.01405  -0.01086  -0.00979  -0.00670
 Alpha virt. eigenvalues --   -0.00231   0.00169   0.00359   0.00520   0.00590

  Beta  occ. eigenvalues --  -38.45001 -38.44876 -38.44510 -38.44453 -38.44063
  Beta  occ. eigenvalues --  -38.43812 -38.41832  -2.20964  -2.20843  -2.20472
  Beta  occ. eigenvalues --   -2.20414  -2.19956  -2.19706  -2.17920  -1.14720
  Beta  occ. eigenvalues --   -1.14657  -1.14610  -1.14579  -1.14535  -1.14459
  Beta  occ. eigenvalues --   -1.14174  -1.14148  -1.14130  -1.14103  -1.14095
  Beta  occ. eigenvalues --   -1.14045  -1.13621  -1.13603  -1.13571  -1.13383
  Beta  occ. eigenvalues --   -1.13358  -1.13325  -1.11678  -1.11568  -1.11500
  Beta  occ. eigenvalues --   -0.18110  -0.15699  -0.10291
  Beta virt. eigenvalues --   -0.06934  -0.06784  -0.05668  -0.04496  -0.03213
  Beta virt. eigenvalues --   -0.02389  -0.01344  -0.01104  -0.00910  -0.00582
  Beta virt. eigenvalues --   -0.00404   0.00035   0.00234   0.00406   0.00554

 Mulliken charges and spin densities:
               1          2
     1  Na   0.399188   0.496525
     2  Na   0.541675   0.093770
     3  Na   0.126630   0.163523
     4  Na   0.818417   0.574958
     5  Na  -2.683687  -0.770643
     6  Na   0.432218   0.259125
     7  Na   0.365559   0.182743
 Sum of Mulliken charges =  -0.00000   1.00000

 Dipole moment (field-independent basis, Debye):
    X=             -0.1538    Y=             -0.1029    Z=             -0.0182  Tot=              0.1860
 Quadrupole moment (field-independent basis, Debye-Ang):
   XX=            -72.8770   YY=            -73.6853   ZZ=            -60.0269
   XY=              0.1306   XZ=              1.3565   YZ=              0.2585

 Normal termination of Gaussian 16 at Mon Nov 13 16:24:49 2023.
