 Gaussian 16, Revision B.01,
 Gaussian 16:  ES64L-G16RevB.01 20-Dec-2017

 -------------------------
 #P B3LYP/6-311+g(d) force
 -------------------------

 ------------------------------
 Gaussian input prepared by ASE
 ------------------------------
 Symbolic Z-matrix:
 Charge =  0 Multiplicity = 2

                         Standard orientation:
 ---------------------------------------------------------------------
 Center     Atomic      Atomic             Coordinates (Angstroms)
 Number     Number       Type             X           Y           Z
 ---------------------------------------------------------------------
      1         11           0        0.761033    1.494404   -0.957525
      2         11           0        0.444758   -0.000236    1.624218
      3         11           0        3.082619   -0.000983    0.202937
      4         11           0        0.758048   -1.496555   -0.957796
      5         11           0       -1.626441   -2.008322    0.773634
      6         11           0       -1.796519    0.000768   -1.457722
      7         11           0       -1.623500    2.010924    0.772253
 ---------------------------------------------------------------------

 SCF Done:  E(UB3LYP) =  -1136.10390210     A.U. after   19 cycles

 The electronic state is 2-A.
 Alpha  occ. eigenvalues --  -38.43972 -38.43791 -38.43754 -38.43240 -38.43238
 Alpha  occ. eigenvalues --  -38.43125 -38.43124  -2.19966  -2.19946  -2.19894
 Alpha  occ. eigenvalues --   -2.19311  -2.19291  -2.19236  -2.19231  -1.13816
 Alpha  occ. eigenvalues --   -1.13718  -1.13660  -1.13627  -1.13626  -1.13582
 Alpha  occ. eigenvalues --   -1.13557  -1.13538  -1.13501  -1.13108  -1.13045
 Alpha  occ. eigenvalues --   -1.13032  -1.12922  -1.12905  -1.12893  -1.12888
 Alpha  occ. eigenvalues --   -1.12878  -1.12852  -1.12849  -1.12780  -1.12750
 Alpha  occ. eigenvalues --   -0.20897  -0.13741  -0.12330  -0.12302
 Alpha virt. eigenvalues --   -0.05344  -0.04068  -0.03943  -0.03574  -0.03138
 Alpha virt. eigenvalues --   -0.02972  -0.01277  -0.00493  -0.00326   0.00319
 Alpha virt. eigenvalues --    0.00728   0.00848   0.00997   0.01019   0.01047

  Beta  occ. eigenvalues --  -38.43969 -38.43739 -38.43674 -38.43223 -38.43220
  Beta  occ. eigenvalues --  -38.43088 -38.43087  -2.19950  -2.19814  -2.19804
  Beta  occ. eigenvalues --   -2.19250  -2.19233  -2.19204  -2.19201  -1.13774
  Beta  occ. eigenvalues --   -1.13646  -1.13615  -1.13595  -1.13559  -1.13510
  Beta  occ. eigenvalues --   -1.13480  -1.13480  -1.13426  -1.13057  -1.13012
  Beta  occ. eigenvalues --   -1.13003  -1.12863  -1.12856  -1.12837  -1.12834
  Beta  occ. eigenvalues --   -1.12831  -1.12822  -1.12818  -1.12749  -1.12710
  Beta  occ. eigenvalues --   -0.20043  -0.13520  -0.12086
  Beta virt. eigenvalues --   -0.07939  -0.05269  -0.04066  -0.03685  -0.03018
  Beta virt. eigenvalues --   -0.02376  -0.01794  -0.01229  -0.00465  -0.00052
  Beta virt. eigenvalues --    0.00347   0.00802   0.00826   0.01016   0.01049

 Mulliken charges and spin densities:
               1          2
     1  Na  -0.432149   0.275071
     2  Na  -0.134992   0.511605
     3  Na   0.957365  -0.068860
     4  Na  -0.431498   0.274780
     5  Na  -0.236575  -0.084476
     6  Na   0.514455   0.176435
     7  Na  -0.236606  -0.084554
 Sum of Mulliken charges =  -0.00000   1.00000

 Dipole moment (field-independent basis, Debye):
    X=              0.1232    Y=             -0.0007    Z=              0.1946  Tot=              0.2303
 Quadrupole moment (field-independent basis, Debye-Ang):
   XX=            -57.2172   YY=            -71.5576   ZZ=            -66.5365
   XY=             -0.0034   XZ=             -0.3971   YZ=              0.0003

 Normal termination of Gaussian 16 at Mon Nov 13 19:42:35 2023.
