 Gaussian 16, Revision B.01,
 Gaussian 16:  ES64L-G16RevB.01 20-Dec-2017

 -------------------------
 #P B3LYP/6-311+g(d) force
 -------------------------

 ------------------------------
 Gaussian input prepared by ASE
 ------------------------------
 Symbolic Z-matrix:
 Charge =  0 Multiplicity = 2

                         Standard orientation:
 ---------------------------------------------------------------------
 Center     Atomic      Atomic             Coordinates (Angstroms)
 Number     Number       Type             X           Y           Z
 ---------------------------------------------------------------------
      1         11           0        1.910698   -0.001367    1.550225
      2         11           0       -0.604630   -0.001739   -1.220792
      3         11           0       -3.337105    0.001805   -0.323748
      4         11           0       -1.102265   -0.311133    1.454379
      5         11           0        0.281305    2.168006    0.208412
      6         11           0        0.739656   -2.166823   -0.210066
      7         11           0        2.112342    0.311250   -1.458410
 ---------------------------------------------------------------------

 SCF Done:  E(UB3LYP) =  -1136.08265486     A.U. after   26 cycles

 The electronic state is 2-A.
 Alpha  occ. eigenvalues --  -38.44756 -38.44320 -38.44247 -38.44140 -38.43863
 Alpha  occ. eigenvalues --  -38.42482 -38.42466  -2.20682  -2.20564  -2.20416
 Alpha  occ. eigenvalues --   -2.20344  -2.20071  -2.18569  -2.18553  -1.14650
 Alpha  occ. eigenvalues --   -1.14473  -1.14379  -1.14319  -1.14263  -1.14206
 Alpha  occ. eigenvalues --   -1.14147  -1.14097  -1.13975  -1.13936  -1.13925
 Alpha  occ. eigenvalues --   -1.13899  -1.13710  -1.13654  -1.13616  -1.12314
 Alpha  occ. eigenvalues --   -1.12292  -1.12206  -1.12198  -1.12145  -1.12114
 Alpha  occ. eigenvalues --   -0.21144  -0.13967  -0.12669  -0.11790
 Alpha virt. eigenvalues --   -0.05959  -0.04130  -0.03579  -0.03406  -0.02843
 Alpha virt. eigenvalues --   -0.02729  -0.01697  -0.00584  -0.00232   0.00287
 Alpha virt. eigenvalues --    0.00604   0.00667   0.00990   0.01036   0.01047

  Beta  occ. eigenvalues --  -38.44752 -38.44263 -38.44185 -38.44077 -38.43807
  Beta  occ. eigenvalues --  -38.42469 -38.42452  -2.20673  -2.20457  -2.20316
  Beta  occ. eigenvalues --   -2.20236  -2.19973  -2.18552  -2.18534  -1.14586
  Beta  occ. eigenvalues --   -1.14424  -1.14343  -1.14261  -1.14251  -1.14142
  Beta  occ. eigenvalues --   -1.14079  -1.13997  -1.13905  -1.13861  -1.13844
  Beta  occ. eigenvalues --   -1.13828  -1.13640  -1.13555  -1.13550  -1.12305
  Beta  occ. eigenvalues --   -1.12284  -1.12157  -1.12134  -1.12125  -1.12107
  Beta  occ. eigenvalues --   -0.20283  -0.13819  -0.11457
  Beta virt. eigenvalues --   -0.08206  -0.05854  -0.03557  -0.03372  -0.03216
  Beta virt. eigenvalues --   -0.02014  -0.01885  -0.01562  -0.00237  -0.00193
  Beta virt. eigenvalues --    0.00328   0.00659   0.00829   0.00991   0.01031

 Mulliken charges and spin densities:
               1          2
     1  Na   1.135861   0.201997
     2  Na   0.511227   0.267168
     3  Na  -0.203949   0.173049
     4  Na   0.138598   0.157588
     5  Na  -1.266751   0.115503
     6  Na  -1.289893   0.350516
     7  Na   0.974907  -0.265822
 Sum of Mulliken charges =  -0.00000   1.00000

 Dipole moment (field-independent basis, Debye):
    X=             -0.2369    Y=              0.0556    Z=              0.1932  Tot=              0.3107
 Quadrupole moment (field-independent basis, Debye-Ang):
   XX=            -52.9831   YY=            -75.8073   ZZ=            -64.8904
   XY=             -0.1529   XZ=              0.6609   YZ=              0.2174

 Normal termination of Gaussian 16 at Mon Nov 13 19:57:59 2023.
