 Gaussian 16, Revision B.01,
 Gaussian 16:  ES64L-G16RevB.01 20-Dec-2017

 -------------------------
 #P B3LYP/6-311+g(d) force
 -------------------------

 ------------------------------
 Gaussian input prepared by ASE
 ------------------------------
 Symbolic Z-matrix:
 Charge =  0 Multiplicity = 2

                         Standard orientation:
 ---------------------------------------------------------------------
 Center     Atomic      Atomic             Coordinates (Angstroms)
 Number     Number       Type             X           Y           Z
 ---------------------------------------------------------------------
      1         11           0        1.440079    0.730617    0.980979
      2         11           0       -0.191945   -1.576358    1.988271
      3         11           0        3.213050    0.359111   -1.413267
      4         11           0        1.323623   -1.818233   -0.585937
      5         11           0       -0.689069    2.788969    0.495277
      6         11           0       -1.092502   -0.040573   -0.425785
      7         11           0       -4.003235   -0.443532   -1.039539
 ---------------------------------------------------------------------

 SCF Done:  E(UB3LYP) =  -1136.09563445     A.U. after   26 cycles

 The electronic state is 2-A.
 Alpha  occ. eigenvalues --  -38.45248 -38.44357 -38.43837 -38.43529 -38.43355
 Alpha  occ. eigenvalues --  -38.43205 -38.43104  -2.21061  -2.20263  -2.19839
 Alpha  occ. eigenvalues --   -2.19604  -2.19544  -2.19266  -2.19096  -1.14743
 Alpha  occ. eigenvalues --   -1.14684  -1.14668  -1.13993  -1.13922  -1.13865
 Alpha  occ. eigenvalues --   -1.13674  -1.13487  -1.13472  -1.13392  -1.13292
 Alpha  occ. eigenvalues --   -1.13275  -1.13176  -1.13161  -1.13111  -1.12968
 Alpha  occ. eigenvalues --   -1.12932  -1.12888  -1.12740  -1.12709  -1.12685
 Alpha  occ. eigenvalues --   -0.19547  -0.13720  -0.11910  -0.11786
 Alpha virt. eigenvalues --   -0.06389  -0.04488  -0.04076  -0.03279  -0.02679
 Alpha virt. eigenvalues --   -0.02310  -0.02038  -0.00892  -0.00586   0.00001
 Alpha virt. eigenvalues --    0.00159   0.00354   0.00570   0.00852   0.00889

  Beta  occ. eigenvalues --  -38.45174 -38.44313 -38.43780 -38.43514 -38.43320
  Beta  occ. eigenvalues --  -38.43193 -38.43095  -2.20923  -2.20182  -2.19736
  Beta  occ. eigenvalues --   -2.19580  -2.19490  -2.19257  -2.19076  -1.14648
  Beta  occ. eigenvalues --   -1.14590  -1.14575  -1.13942  -1.13859  -1.13810
  Beta  occ. eigenvalues --   -1.13610  -1.13411  -1.13407  -1.13365  -1.13264
  Beta  occ. eigenvalues --   -1.13253  -1.13117  -1.13085  -1.13077  -1.12950
  Beta  occ. eigenvalues --   -1.12905  -1.12867  -1.12711  -1.12696  -1.12677
  Beta  occ. eigenvalues --   -0.18912  -0.12918  -0.11629
  Beta virt. eigenvalues --   -0.08253  -0.05883  -0.04255  -0.03794  -0.03096
  Beta virt. eigenvalues --   -0.02195  -0.01752  -0.01532  -0.00682  -0.00441
  Beta virt. eigenvalues --    0.00149   0.00279   0.00439   0.00669   0.00928

 Mulliken charges and spin densities:
               1          2
     1  Na   2.694313  -0.089902
     2  Na  -0.086910   0.282635
     3  Na   0.929117   0.108165
     4  Na   0.516744   0.081930
     5  Na  -0.470422   0.197526
     6  Na  -2.726115   0.030337
     7  Na  -0.856728   0.389309
 Sum of Mulliken charges =  -0.00000   1.00000

 Dipole moment (field-independent basis, Debye):
    X=             -0.4213    Y=             -0.2654    Z=              0.0260  Tot=              0.4987
 Quadrupole moment (field-independent basis, Debye-Ang):
   XX=            -55.4792   YY=            -71.3753   ZZ=            -65.0254
   XY=              0.6371   XZ=             -0.8912   YZ=              0.1787

 Normal termination of Gaussian 16 at Mon Nov 13 18:53:03 2023.
