 Gaussian 16, Revision B.01,
 Gaussian 16:  ES64L-G16RevB.01 20-Dec-2017

 -------------------------
 #P B3LYP/6-311+g(d) force
 -------------------------

 ------------------------------
 Gaussian input prepared by ASE
 ------------------------------
 Symbolic Z-matrix:
 Charge =  0 Multiplicity = 2

                         Standard orientation:
 ---------------------------------------------------------------------
 Center     Atomic      Atomic             Coordinates (Angstroms)
 Number     Number       Type             X           Y           Z
 ---------------------------------------------------------------------
      1         11           0        0.644205    1.557896   -0.250099
      2         11           0       -2.343910    1.445526   -0.522725
      3         11           0       -4.167814   -0.031743    1.343954
      4         11           0       -2.294840   -1.551782   -0.432528
      5         11           0        0.675357   -1.386543   -0.839892
      6         11           0        3.205690    0.213459   -1.031450
      7         11           0        4.281312   -0.246813    1.732740
 ---------------------------------------------------------------------

 SCF Done:  E(UB3LYP) =  -1136.09813245     A.U. after   24 cycles

 The electronic state is 2-A.
 Alpha  occ. eigenvalues --  -38.44506 -38.44329 -38.44242 -38.44026 -38.43832
 Alpha  occ. eigenvalues --  -38.43728 -38.43560  -2.20489  -2.20341  -2.20254
 Alpha  occ. eigenvalues --   -2.20033  -2.19841  -2.19531  -2.19470  -1.14228
 Alpha  occ. eigenvalues --   -1.14190  -1.14123  -1.14120  -1.14048  -1.13997
 Alpha  occ. eigenvalues --   -1.13950  -1.13902  -1.13836  -1.13728  -1.13680
 Alpha  occ. eigenvalues --   -1.13620  -1.13510  -1.13450  -1.13397  -1.13204
 Alpha  occ. eigenvalues --   -1.13187  -1.13185  -1.13127  -1.13122  -1.13087
 Alpha  occ. eigenvalues --   -0.18732  -0.15284  -0.11783  -0.11110
 Alpha virt. eigenvalues --   -0.06294  -0.05429  -0.05042  -0.03362  -0.02949
 Alpha virt. eigenvalues --   -0.02420  -0.02005  -0.00780  -0.00669  -0.00204
 Alpha virt. eigenvalues --    0.00025   0.00204   0.00340   0.00395   0.00596

  Beta  occ. eigenvalues --  -38.44500 -38.44274 -38.44180 -38.43971 -38.43780
  Beta  occ. eigenvalues --  -38.43754 -38.43542  -2.20478  -2.20245  -2.20145
  Beta  occ. eigenvalues --   -2.19935  -2.19748  -2.19579  -2.19439  -1.14221
  Beta  occ. eigenvalues --   -1.14162  -1.14126  -1.14051  -1.13962  -1.13927
  Beta  occ. eigenvalues --   -1.13849  -1.13830  -1.13759  -1.13666  -1.13611
  Beta  occ. eigenvalues --   -1.13544  -1.13433  -1.13374  -1.13341  -1.13234
  Beta  occ. eigenvalues --   -1.13219  -1.13218  -1.13109  -1.13086  -1.13066
  Beta  occ. eigenvalues --   -0.18063  -0.15111  -0.10954
  Beta virt. eigenvalues --   -0.07527  -0.06246  -0.05212  -0.04388  -0.02871
  Beta virt. eigenvalues --   -0.02624  -0.02099  -0.01490  -0.00762  -0.00166
  Beta virt. eigenvalues --   -0.00100   0.00106   0.00398   0.00418   0.00540

 Mulliken charges and spin densities:
               1          2
     1  Na  -0.951751   0.198899
     2  Na   0.229591   0.233454
     3  Na   0.230962   0.086027
     4  Na  -0.265416   0.161475
     5  Na  -0.594802   0.191417
     6  Na   1.286179   0.345684
     7  Na   0.065238  -0.216956
 Sum of Mulliken charges =  -0.00000   1.00000

 Dipole moment (field-independent basis, Debye):
    X=             -0.1808    Y=              0.0879    Z=              0.0156  Tot=              0.2016
 Quadrupole moment (field-independent basis, Debye-Ang):
   XX=            -71.4964   YY=            -70.0711   ZZ=            -64.3465
   XY=             -0.3368   XZ=             -2.3245   YZ=             -0.7978

 Normal termination of Gaussian 16 at Mon Nov 13 15:35:21 2023.
