 Gaussian 16, Revision B.01,
 Gaussian 16:  ES64L-G16RevB.01 20-Dec-2017

 -------------------------
 #P B3LYP/6-311+g(d) force
 -------------------------

 ------------------------------
 Gaussian input prepared by ASE
 ------------------------------
 Symbolic Z-matrix:
 Charge =  0 Multiplicity = 2

                         Standard orientation:
 ---------------------------------------------------------------------
 Center     Atomic      Atomic             Coordinates (Angstroms)
 Number     Number       Type             X           Y           Z
 ---------------------------------------------------------------------
      1         11           0        0.502750    0.015171    1.247992
      2         11           0       -0.201586   -2.099902   -0.758716
      3         11           0        2.616159   -1.855182    0.247091
      4         11           0        2.839897    1.089712   -0.294836
      5         11           0        0.293819    2.668511   -0.125500
      6         11           0       -1.699107    0.503042   -0.726760
      7         11           0       -4.351932   -0.321353    0.410730
 ---------------------------------------------------------------------

 SCF Done:  E(UB3LYP) =  -1136.09868352     A.U. after   22 cycles

 The electronic state is 2-A.
 Alpha  occ. eigenvalues --  -38.45064 -38.43975 -38.43780 -38.43745 -38.43655
 Alpha  occ. eigenvalues --  -38.43558 -38.43276  -2.21245  -2.19968  -2.19737
 Alpha  occ. eigenvalues --   -2.19650  -2.19634  -2.19546  -2.19356  -1.14969
 Alpha  occ. eigenvalues --   -1.14938  -1.14905  -1.13692  -1.13665  -1.13596
 Alpha  occ. eigenvalues --   -1.13478  -1.13464  -1.13367  -1.13359  -1.13313
 Alpha  occ. eigenvalues --   -1.13277  -1.13267  -1.13252  -1.13238  -1.13200
 Alpha  occ. eigenvalues --   -1.13188  -1.13162  -1.13028  -1.12981  -1.12924
 Alpha  occ. eigenvalues --   -0.19750  -0.14329  -0.12962  -0.10290
 Alpha virt. eigenvalues --   -0.06965  -0.04963  -0.04597  -0.03499  -0.02841
 Alpha virt. eigenvalues --   -0.02297  -0.01263  -0.00894  -0.00514  -0.00191
 Alpha virt. eigenvalues --   -0.00132   0.00041   0.00554   0.00689   0.00771

  Beta  occ. eigenvalues --  -38.45053 -38.43943 -38.43712 -38.43668 -38.43636
  Beta  occ. eigenvalues --  -38.43550 -38.43257  -2.21228  -2.19910  -2.19678
  Beta  occ. eigenvalues --   -2.19619  -2.19532  -2.19427  -2.19332  -1.14946
  Beta  occ. eigenvalues --   -1.14918  -1.14889  -1.13653  -1.13621  -1.13548
  Beta  occ. eigenvalues --   -1.13448  -1.13413  -1.13324  -1.13295  -1.13277
  Beta  occ. eigenvalues --   -1.13253  -1.13204  -1.13174  -1.13160  -1.13146
  Beta  occ. eigenvalues --   -1.13111  -1.13098  -1.13006  -1.12943  -1.12867
  Beta  occ. eigenvalues --   -0.19287  -0.13458  -0.12840
  Beta virt. eigenvalues --   -0.06841  -0.06549  -0.04862  -0.04369  -0.02807
  Beta virt. eigenvalues --   -0.02421  -0.02255  -0.00919  -0.00755  -0.00216
  Beta virt. eigenvalues --    0.00051   0.00152   0.00290   0.00751   0.00801

 Mulliken charges and spin densities:
               1          2
     1  Na  -1.551181   0.121235
     2  Na   0.107623  -0.117553
     3  Na   0.811500   0.088854
     4  Na   0.200418   0.250425
     5  Na   0.623223  -0.078281
     6  Na  -0.213015   0.337636
     7  Na   0.021432   0.397684
 Sum of Mulliken charges =  -0.00000   1.00000

 Dipole moment (field-independent basis, Debye):
    X=              1.0824    Y=             -0.1464    Z=             -0.3618  Tot=              1.1507
 Quadrupole moment (field-independent basis, Debye-Ang):
   XX=            -76.4210   YY=            -66.2432   ZZ=            -64.6993
   XY=             -0.8140   XZ=             -2.4317   YZ=             -0.7530

 Normal termination of Gaussian 16 at Mon Nov 13 16:05:25 2023.
