 Gaussian 16, Revision B.01,
 Gaussian 16:  ES64L-G16RevB.01 20-Dec-2017

 -------------------------
 #P B3LYP/6-311+g(d) force
 -------------------------

 ------------------------------
 Gaussian input prepared by ASE
 ------------------------------
 Symbolic Z-matrix:
 Charge =  0 Multiplicity = 2

                         Standard orientation:
 ---------------------------------------------------------------------
 Center     Atomic      Atomic             Coordinates (Angstroms)
 Number     Number       Type             X           Y           Z
 ---------------------------------------------------------------------
      1         11           0        0.136633    0.668434   -1.717324
      2         11           0        0.386045   -1.867597   -0.125182
      3         11           0        2.839134   -0.356674   -0.923434
      4         11           0        1.716166   -0.021966    1.837014
      5         11           0       -0.011438    2.226890    0.841996
      6         11           0       -2.512017    1.113999   -0.381168
      7         11           0       -2.554523   -1.763086    0.468098
 ---------------------------------------------------------------------

 SCF Done:  E(UB3LYP) =  -1136.10762882     A.U. after   22 cycles

 The electronic state is 2-A.
 Alpha  occ. eigenvalues --  -38.44566 -38.44436 -38.44012 -38.43955 -38.43629
 Alpha  occ. eigenvalues --  -38.43119 -38.43113  -2.20563  -2.20444  -2.20118
 Alpha  occ. eigenvalues --   -2.19935  -2.19519  -2.19183  -2.19109  -1.14332
 Alpha  occ. eigenvalues --   -1.14289  -1.14180  -1.14122  -1.14081  -1.13999
 Alpha  occ. eigenvalues --   -1.13863  -1.13791  -1.13740  -1.13614  -1.13603
 Alpha  occ. eigenvalues --   -1.13555  -1.13241  -1.13158  -1.13139  -1.12867
 Alpha  occ. eigenvalues --   -1.12847  -1.12783  -1.12770  -1.12757  -1.12726
 Alpha  occ. eigenvalues --   -0.20088  -0.14087  -0.12226  -0.11894
 Alpha virt. eigenvalues --   -0.05873  -0.04852  -0.04140  -0.03711  -0.03090
 Alpha virt. eigenvalues --   -0.02752  -0.01643  -0.00392  -0.00309   0.00302
 Alpha virt. eigenvalues --    0.00463   0.00500   0.00824   0.00946   0.00966

  Beta  occ. eigenvalues --  -38.44536 -38.44360 -38.43952 -38.43935 -38.43628
  Beta  occ. eigenvalues --  -38.43095 -38.43094  -2.20513  -2.20305  -2.19980
  Beta  occ. eigenvalues --   -2.19930  -2.19519  -2.19156  -2.19069  -1.14297
  Beta  occ. eigenvalues --   -1.14204  -1.14148  -1.14027  -1.13977  -1.13917
  Beta  occ. eigenvalues --   -1.13789  -1.13704  -1.13653  -1.13606  -1.13595
  Beta  occ. eigenvalues --   -1.13507  -1.13239  -1.13159  -1.13133  -1.12850
  Beta  occ. eigenvalues --   -1.12782  -1.12761  -1.12754  -1.12710  -1.12686
  Beta  occ. eigenvalues --   -0.19318  -0.13882  -0.11884
  Beta virt. eigenvalues --   -0.07817  -0.05769  -0.04636  -0.03784  -0.03323
  Beta virt. eigenvalues --   -0.02237  -0.01885  -0.01537  -0.00351  -0.00047
  Beta virt. eigenvalues --    0.00350   0.00469   0.00540   0.00931   0.01005

 Mulliken charges and spin densities:
               1          2
     1  Na  -0.562897   0.211375
     2  Na  -0.354024   0.427466
     3  Na   1.089723  -0.177551
     4  Na   0.093520   0.439271
     5  Na  -0.715296   0.020917
     6  Na   1.142601   0.248037
     7  Na  -0.693628  -0.169514
 Sum of Mulliken charges =  -0.00000   1.00000

 Dipole moment (field-independent basis, Debye):
    X=              0.3971    Y=              0.1731    Z=              0.1583  Tot=              0.4612
 Quadrupole moment (field-independent basis, Debye-Ang):
   XX=            -55.2207   YY=            -74.2489   ZZ=            -67.7587
   XY=             -0.8612   XZ=             -1.2567   YZ=             -0.0849

 Normal termination of Gaussian 16 at Mon Nov 13 16:47:45 2023.
