 Gaussian 16, Revision B.01,
 Gaussian 16:  ES64L-G16RevB.01 20-Dec-2017

 -------------------------
 #P B3LYP/6-311+g(d) force
 -------------------------

 ------------------------------
 Gaussian input prepared by ASE
 ------------------------------
 Symbolic Z-matrix:
 Charge =  0 Multiplicity = 2

                         Standard orientation:
 ---------------------------------------------------------------------
 Center     Atomic      Atomic             Coordinates (Angstroms)
 Number     Number       Type             X           Y           Z
 ---------------------------------------------------------------------
      1         11           0       -0.003697    0.297645    1.938533
      2         11           0        0.005252   -1.696029    0.265454
      3         11           0        1.443230    1.556085   -0.061433
      4         11           0        2.477709   -0.869623   -0.076251
      5         11           0       -0.000531    0.036677   -1.926690
      6         11           0       -2.472776   -0.876784   -0.078168
      7         11           0       -1.449187    1.552028   -0.061445
 ---------------------------------------------------------------------

 SCF Done:  E(UB3LYP) =  -1136.04956695     A.U. after   21 cycles

 The electronic state is 2-A.
 Alpha  occ. eigenvalues --  -38.45260 -38.44905 -38.44420 -38.44411 -38.43799
 Alpha  occ. eigenvalues --  -38.43613 -38.43604  -2.21512  -2.21145  -2.20550
 Alpha  occ. eigenvalues --   -2.20539  -2.20146  -2.19873  -2.19839  -1.15393
 Alpha  occ. eigenvalues --   -1.15219  -1.15098  -1.14972  -1.14810  -1.14797
 Alpha  occ. eigenvalues --   -1.14603  -1.14433  -1.14398  -1.14303  -1.14104
 Alpha  occ. eigenvalues --   -1.14088  -1.13726  -1.13684  -1.13655  -1.13522
 Alpha  occ. eigenvalues --   -1.13491  -1.13467  -1.13429  -1.13391  -1.13269
 Alpha  occ. eigenvalues --   -0.22277  -0.14325  -0.13075  -0.12362
 Alpha virt. eigenvalues --   -0.05456  -0.04244  -0.03955  -0.03893  -0.03140
 Alpha virt. eigenvalues --   -0.02898  -0.01203  -0.00265  -0.00252   0.00298
 Alpha virt. eigenvalues --    0.00781   0.00959   0.01117   0.01131   0.01248

  Beta  occ. eigenvalues --  -38.45153 -38.44801 -38.44412 -38.44403 -38.43771
  Beta  occ. eigenvalues --  -38.43594 -38.43585  -2.21321  -2.20958  -2.20541
  Beta  occ. eigenvalues --   -2.20531  -2.20108  -2.19849  -2.19815  -1.15274
  Beta  occ. eigenvalues --   -1.15081  -1.14961  -1.14863  -1.14688  -1.14675
  Beta  occ. eigenvalues --   -1.14571  -1.14427  -1.14391  -1.14298  -1.14051
  Beta  occ. eigenvalues --   -1.14036  -1.13673  -1.13648  -1.13602  -1.13510
  Beta  occ. eigenvalues --   -1.13422  -1.13401  -1.13384  -1.13376  -1.13263
  Beta  occ. eigenvalues --   -0.21367  -0.13907  -0.11997
  Beta virt. eigenvalues --   -0.08784  -0.05483  -0.03954  -0.03490  -0.03196
  Beta virt. eigenvalues --   -0.02230  -0.02179  -0.01111  -0.00247  -0.00061
  Beta virt. eigenvalues --    0.00320   0.00824   0.00958   0.01127   0.01187

 Mulliken charges and spin densities:
               1          2
     1  Na   0.267294   0.512140
     2  Na  -0.039506   0.017659
     3  Na  -0.128715  -0.017969
     4  Na  -0.105624  -0.009384
     5  Na   0.234355   0.522685
     6  Na  -0.103543  -0.008556
     7  Na  -0.124262  -0.016575
 Sum of Mulliken charges =  -0.00000   1.00000

 Dipole moment (field-independent basis, Debye):
    X=              0.0014    Y=              0.0462    Z=             -0.1049  Tot=              0.1147
 Quadrupole moment (field-independent basis, Debye-Ang):
   XX=            -59.0948   YY=            -75.3892   ZZ=            -64.6084
   XY=              0.0090   XZ=              0.0036   YZ=             -0.1723

 Normal termination of Gaussian 16 at Mon Nov 13 20:41:12 2023.
