 Gaussian 16, Revision B.01,
 Gaussian 16:  ES64L-G16RevB.01 20-Dec-2017

 -------------------------
 #P B3LYP/6-311+g(d) force
 -------------------------

 ------------------------------
 Gaussian input prepared by ASE
 ------------------------------
 Symbolic Z-matrix:
 Charge =  0 Multiplicity = 2

                         Standard orientation:
 ---------------------------------------------------------------------
 Center     Atomic      Atomic             Coordinates (Angstroms)
 Number     Number       Type             X           Y           Z
 ---------------------------------------------------------------------
      1         11           0       -0.528645    0.050634   -1.307091
      2         11           0        0.204526    2.285107    0.571126
      3         11           0       -3.442175    0.152508   -0.625905
      4         11           0       -1.515820   -1.069213    1.306095
      5         11           0        1.361053   -0.253637    1.699715
      6         11           0        2.342050    0.850577   -0.917472
      7         11           0        1.579012   -2.015976   -0.726468
 ---------------------------------------------------------------------

 SCF Done:  E(UB3LYP) =  -1136.10429046     A.U. after   24 cycles

 The electronic state is 2-A.
 Alpha  occ. eigenvalues --  -38.44670 -38.43958 -38.43918 -38.43817 -38.43558
 Alpha  occ. eigenvalues --  -38.42881 -38.42480  -2.20560  -2.20089  -2.20011
 Alpha  occ. eigenvalues --   -2.19828  -2.19767  -2.18890  -2.18490  -1.14290
 Alpha  occ. eigenvalues --   -1.14247  -1.14160  -1.13889  -1.13846  -1.13753
 Alpha  occ. eigenvalues --   -1.13709  -1.13632  -1.13599  -1.13587  -1.13466
 Alpha  occ. eigenvalues --   -1.13421  -1.13413  -1.13390  -1.13333  -1.12585
 Alpha  occ. eigenvalues --   -1.12536  -1.12488  -1.12206  -1.12140  -1.12082
 Alpha  occ. eigenvalues --   -0.20467  -0.14091  -0.12254  -0.11726
 Alpha virt. eigenvalues --   -0.06099  -0.04416  -0.03720  -0.03445  -0.02997
 Alpha virt. eigenvalues --   -0.02650  -0.01729  -0.00535  -0.00389   0.00271
 Alpha virt. eigenvalues --    0.00450   0.00617   0.00759   0.00990   0.01008

  Beta  occ. eigenvalues --  -38.44659 -38.43888 -38.43882 -38.43775 -38.43505
  Beta  occ. eigenvalues --  -38.42863 -38.42466  -2.20542  -2.19968  -2.19945
  Beta  occ. eigenvalues --   -2.19754  -2.19674  -2.18863  -2.18469  -1.14276
  Beta  occ. eigenvalues --   -1.14225  -1.14149  -1.13835  -1.13740  -1.13687
  Beta  occ. eigenvalues --   -1.13625  -1.13578  -1.13543  -1.13520  -1.13378
  Beta  occ. eigenvalues --   -1.13362  -1.13355  -1.13332  -1.13264  -1.12567
  Beta  occ. eigenvalues --   -1.12510  -1.12448  -1.12196  -1.12089  -1.12071
  Beta  occ. eigenvalues --   -0.19647  -0.13875  -0.11472
  Beta virt. eigenvalues --   -0.07958  -0.05955  -0.04001  -0.03548  -0.03199
  Beta virt. eigenvalues --   -0.02121  -0.01783  -0.01590  -0.00406  -0.00160
  Beta virt. eigenvalues --    0.00303   0.00521   0.00715   0.00831   0.01012

 Mulliken charges and spin densities:
               1          2
     1  Na  -0.324195   0.387240
     2  Na  -0.513636   0.007208
     3  Na   0.430306   0.029968
     4  Na  -0.520972   0.051910
     5  Na   0.336495   0.427150
     6  Na   0.722078  -0.002193
     7  Na  -0.130077   0.098716
 Sum of Mulliken charges =  -0.00000   1.00000

 Dipole moment (field-independent basis, Debye):
    X=             -0.6854    Y=              0.0227    Z=              0.0160  Tot=              0.6860
 Quadrupole moment (field-independent basis, Debye-Ang):
   XX=            -53.8180   YY=            -74.2338   ZZ=            -66.5154
   XY=             -0.9181   XZ=             -0.1797   YZ=             -0.2153

 Normal termination of Gaussian 16 at Mon Nov 13 17:58:04 2023.
