 Gaussian 16, Revision B.01,
 Gaussian 16:  ES64L-G16RevB.01 20-Dec-2017

 -------------------------
 #P B3LYP/6-311+g(d) force
 -------------------------

 ------------------------------
 Gaussian input prepared by ASE
 ------------------------------
 Symbolic Z-matrix:
 Charge =  0 Multiplicity = 2

                         Standard orientation:
 ---------------------------------------------------------------------
 Center     Atomic      Atomic             Coordinates (Angstroms)
 Number     Number       Type             X           Y           Z
 ---------------------------------------------------------------------
      1         11           0       -0.230577   -0.001405   -1.453890
      2         11           0        0.785550   -2.272838    0.008613
      3         11           0       -2.208469   -1.531698   -0.014028
      4         11           0       -2.196614    1.544886   -0.011220
      5         11           0        0.191675    0.003331    1.724124
      6         11           0        0.804855    2.268396    0.002163
      7         11           0        2.853580   -0.010672   -0.255762
 ---------------------------------------------------------------------

 SCF Done:  E(UB3LYP) =  -1136.10830775     A.U. after   21 cycles

 The electronic state is 2-A.
 Alpha  occ. eigenvalues --  -38.43793 -38.43515 -38.43508 -38.43328 -38.43293
 Alpha  occ. eigenvalues --  -38.43200 -38.43197  -2.19767  -2.19605  -2.19535
 Alpha  occ. eigenvalues --   -2.19527  -2.19494  -2.19275  -2.19269  -1.13549
 Alpha  occ. eigenvalues --   -1.13519  -1.13489  -1.13447  -1.13409  -1.13350
 Alpha  occ. eigenvalues --   -1.13277  -1.13251  -1.13189  -1.13185  -1.13156
 Alpha  occ. eigenvalues --   -1.13138  -1.13088  -1.13054  -1.13051  -1.12901
 Alpha  occ. eigenvalues --   -1.12890  -1.12872  -1.12844  -1.12843  -1.12837
 Alpha  occ. eigenvalues --   -0.20867  -0.13777  -0.13026  -0.11271
 Alpha virt. eigenvalues --   -0.05321  -0.04699  -0.04309  -0.03278  -0.02898
 Alpha virt. eigenvalues --   -0.02220  -0.01359  -0.00761   0.00029   0.00324
 Alpha virt. eigenvalues --    0.00439   0.00445   0.00926   0.01052   0.01075

  Beta  occ. eigenvalues --  -38.43784 -38.43506 -38.43499 -38.43236 -38.43219
  Beta  occ. eigenvalues --  -38.43186 -38.43184  -2.19755  -2.19540  -2.19517
  Beta  occ. eigenvalues --   -2.19456  -2.19332  -2.19257  -2.19246  -1.13508
  Beta  occ. eigenvalues --   -1.13494  -1.13455  -1.13423  -1.13365  -1.13306
  Beta  occ. eigenvalues --   -1.13232  -1.13185  -1.13143  -1.13133  -1.13090
  Beta  occ. eigenvalues --   -1.13088  -1.13073  -1.12988  -1.12945  -1.12870
  Beta  occ. eigenvalues --   -1.12837  -1.12835  -1.12829  -1.12817  -1.12766
  Beta  occ. eigenvalues --   -0.20093  -0.13449  -0.12680
  Beta virt. eigenvalues --   -0.07171  -0.05320  -0.04680  -0.04319  -0.02393
  Beta virt. eigenvalues --   -0.02002  -0.01282  -0.01154  -0.00713   0.00154
  Beta virt. eigenvalues --    0.00331   0.00399   0.00418   0.00954   0.01055

 Mulliken charges and spin densities:
               1          2
     1  Na  -1.361590   0.339653
     2  Na   0.604833   0.042913
     3  Na   0.437747   0.008752
     4  Na   0.439192   0.008467
     5  Na  -0.848123   0.583110
     6  Na   0.600905   0.041599
     7  Na   0.127037  -0.024493
 Sum of Mulliken charges =  -0.00000   1.00000

 Dipole moment (field-independent basis, Debye):
    X=              0.0983    Y=              0.0009    Z=              0.2091  Tot=              0.2310
 Quadrupole moment (field-independent basis, Debye-Ang):
   XX=            -56.0820   YY=            -65.3596   ZZ=            -72.9575
   XY=             -0.0071   XZ=             -1.0618   YZ=             -0.0063

 Normal termination of Gaussian 16 at Mon Nov 13 19:05:56 2023.
