 Gaussian 16, Revision B.01,
 Gaussian 16:  ES64L-G16RevB.01 20-Dec-2017

 -------------------------
 #P B3LYP/6-311+g(d) force
 -------------------------

 ------------------------------
 Gaussian input prepared by ASE
 ------------------------------
 Symbolic Z-matrix:
 Charge =  0 Multiplicity = 2

                         Standard orientation:
 ---------------------------------------------------------------------
 Center     Atomic      Atomic             Coordinates (Angstroms)
 Number     Number       Type             X           Y           Z
 ---------------------------------------------------------------------
      1         11           0       -0.279986   -0.097203    2.756368
      2         11           0        0.286136    3.009562    0.078880
      3         11           0       -4.311659    0.095786   -0.465171
      4         11           0       -1.714758   -1.071523   -1.369074
      5         11           0        1.821012   -2.751156    0.188052
      6         11           0        0.745636    0.042824   -0.059076
      7         11           0        3.453619    0.771710   -1.129978
 ---------------------------------------------------------------------

 SCF Done:  E(UB3LYP) =  -1136.10221067     A.U. after   23 cycles

 The electronic state is 2-A.
 Alpha  occ. eigenvalues --  -38.45582 -38.45307 -38.44547 -38.43940 -38.43282
 Alpha  occ. eigenvalues --  -38.43149 -38.42735  -2.21418  -2.21120  -2.20344
 Alpha  occ. eigenvalues --   -2.19817  -2.19094  -2.18977  -2.18927  -1.15114
 Alpha  occ. eigenvalues --   -1.15028  -1.14988  -1.14820  -1.14770  -1.14697
 Alpha  occ. eigenvalues --   -1.14061  -1.13990  -1.13974  -1.13553  -1.13448
 Alpha  occ. eigenvalues --   -1.13408  -1.12876  -1.12747  -1.12731  -1.12713
 Alpha  occ. eigenvalues --   -1.12663  -1.12629  -1.12612  -1.12595  -1.12430
 Alpha  occ. eigenvalues --   -0.17918  -0.13064  -0.11724  -0.11364
 Alpha virt. eigenvalues --   -0.06681  -0.04877  -0.03753  -0.03404  -0.02964
 Alpha virt. eigenvalues --   -0.02501  -0.02233  -0.01089  -0.00744  -0.00376
 Alpha virt. eigenvalues --    0.00062   0.00196   0.00627   0.00753   0.00782

  Beta  occ. eigenvalues --  -38.45453 -38.45251 -38.44537 -38.43928 -38.43290
  Beta  occ. eigenvalues --  -38.43150 -38.42714  -2.21182  -2.21015  -2.20327
  Beta  occ. eigenvalues --   -2.19793  -2.19110  -2.18981  -2.18902  -1.14951
  Beta  occ. eigenvalues --   -1.14869  -1.14820  -1.14750  -1.14698  -1.14625
  Beta  occ. eigenvalues --   -1.14046  -1.13978  -1.13963  -1.13538  -1.13432
  Beta  occ. eigenvalues --   -1.13389  -1.12887  -1.12753  -1.12736  -1.12715
  Beta  occ. eigenvalues --   -1.12632  -1.12606  -1.12597  -1.12548  -1.12426
  Beta  occ. eigenvalues --   -0.17177  -0.12614  -0.11285
  Beta virt. eigenvalues --   -0.07897  -0.06246  -0.04661  -0.03436  -0.02991
  Beta virt. eigenvalues --   -0.02413  -0.01972  -0.01901  -0.01029  -0.00478
  Beta virt. eigenvalues --   -0.00209   0.00121   0.00301   0.00709   0.00831

 Mulliken charges and spin densities:
               1          2
     1  Na   0.501473   0.407104
     2  Na   0.955709  -0.004369
     3  Na  -0.225832   0.021949
     4  Na   0.520729   0.082490
     5  Na   0.361295  -0.076712
     6  Na  -2.051806   0.551249
     7  Na  -0.061569   0.018288
 Sum of Mulliken charges =  -0.00000   1.00000

 Dipole moment (field-independent basis, Debye):
    X=              0.0620    Y=              0.2741    Z=              0.7423  Tot=              0.7938
 Quadrupole moment (field-independent basis, Debye-Ang):
   XX=            -53.7893   YY=            -70.5939   ZZ=            -66.2509
   XY=             -2.9486   XZ=             -5.6102   YZ=             -1.3414

 Normal termination of Gaussian 16 at Mon Nov 13 18:30:58 2023.
