 Gaussian 16, Revision B.01,
 Gaussian 16:  ES64L-G16RevB.01 20-Dec-2017

 -------------------------
 #P B3LYP/6-311+g(d) force
 -------------------------

 ------------------------------
 Gaussian input prepared by ASE
 ------------------------------
 Symbolic Z-matrix:
 Charge =  0 Multiplicity = 2

                         Standard orientation:
 ---------------------------------------------------------------------
 Center     Atomic      Atomic             Coordinates (Angstroms)
 Number     Number       Type             X           Y           Z
 ---------------------------------------------------------------------
      1         11           0       -1.339368   -1.520860   -1.040438
      2         11           0        1.640403   -1.427603   -0.694149
      3         11           0        4.249987   -0.646227    0.556331
      4         11           0        2.080564    1.399082    0.221594
      5         11           0       -0.595266    2.734253   -0.035005
      6         11           0       -2.958494    0.923320   -0.410158
      7         11           0       -3.077826   -1.461966    1.401825
 ---------------------------------------------------------------------

 SCF Done:  E(UB3LYP) =  -1136.10430329     A.U. after   21 cycles

 The electronic state is 2-A.
 Alpha  occ. eigenvalues --  -38.44718 -38.44586 -38.44288 -38.44214 -38.43839
 Alpha  occ. eigenvalues --  -38.43705 -38.42653  -2.20692  -2.20492  -2.20212
 Alpha  occ. eigenvalues --   -2.20179  -2.19834  -2.19708  -2.18542  -1.14437
 Alpha  occ. eigenvalues --   -1.14391  -1.14343  -1.14159  -1.14111  -1.14093
 Alpha  occ. eigenvalues --   -1.14029  -1.13921  -1.13876  -1.13844  -1.13809
 Alpha  occ. eigenvalues --   -1.13740  -1.13578  -1.13466  -1.13455  -1.13350
 Alpha  occ. eigenvalues --   -1.13340  -1.13290  -1.12250  -1.12187  -1.12163
 Alpha  occ. eigenvalues --   -0.18381  -0.15335  -0.12175  -0.10927
 Alpha virt. eigenvalues --   -0.06514  -0.05160  -0.04227  -0.04054  -0.02818
 Alpha virt. eigenvalues --   -0.02197  -0.01690  -0.01365  -0.00443  -0.00180
 Alpha virt. eigenvalues --   -0.00082   0.00169   0.00454   0.00646   0.00787

  Beta  occ. eigenvalues --  -38.44699 -38.44544 -38.44239 -38.44203 -38.43788
  Beta  occ. eigenvalues --  -38.43651 -38.42653  -2.20661  -2.20415  -2.20168
  Beta  occ. eigenvalues --   -2.20115  -2.19749  -2.19619  -2.18543  -1.14416
  Beta  occ. eigenvalues --   -1.14350  -1.14313  -1.14113  -1.14060  -1.14033
  Beta  occ. eigenvalues --   -1.13993  -1.13873  -1.13828  -1.13824  -1.13754
  Beta  occ. eigenvalues --   -1.13690  -1.13473  -1.13415  -1.13395  -1.13293
  Beta  occ. eigenvalues --   -1.13285  -1.13178  -1.12252  -1.12187  -1.12159
  Beta  occ. eigenvalues --   -0.17718  -0.14844  -0.11919
  Beta virt. eigenvalues --   -0.07068  -0.06387  -0.04967  -0.03877  -0.03707
  Beta virt. eigenvalues --   -0.02473  -0.01797  -0.01201  -0.01037  -0.00334
  Beta virt. eigenvalues --    0.00021   0.00111   0.00355   0.00551   0.00754

 Mulliken charges and spin densities:
               1          2
     1  Na  -0.053124  -0.058198
     2  Na  -0.893296   0.077445
     3  Na   1.897649   0.357929
     4  Na  -1.147476   0.076913
     5  Na   0.456505   0.160649
     6  Na  -0.809745   0.221194
     7  Na   0.549487   0.164068
 Sum of Mulliken charges =  -0.00000   1.00000

 Dipole moment (field-independent basis, Debye):
    X=              0.1521    Y=             -0.7076    Z=              0.6439  Tot=              0.9688
 Quadrupole moment (field-independent basis, Debye-Ang):
   XX=            -59.2615   YY=            -72.8039   ZZ=            -67.2335
   XY=             -1.6664   XZ=              1.1937   YZ=             -2.5901

 Normal termination of Gaussian 16 at Mon Nov 13 15:36:06 2023.
