 Gaussian 16, Revision B.01,
 Gaussian 16:  ES64L-G16RevB.01 20-Dec-2017

 -------------------------
 #P B3LYP/6-311+g(d) force
 -------------------------

 ------------------------------
 Gaussian input prepared by ASE
 ------------------------------
 Symbolic Z-matrix:
 Charge =  0 Multiplicity = 2

                         Standard orientation:
 ---------------------------------------------------------------------
 Center     Atomic      Atomic             Coordinates (Angstroms)
 Number     Number       Type             X           Y           Z
 ---------------------------------------------------------------------
      1         11           0       -0.112119   -2.382429   -0.207468
      2         11           0       -1.319548    2.111029    0.031004
      3         11           0       -2.671760   -0.662498   -0.059641
      4         11           0       -0.358753   -0.126964    1.586662
      5         11           0        0.088914    0.172140   -1.579984
      6         11           0        1.759008    1.912595    0.037150
      7         11           0        2.614259   -1.023873    0.192277
 ---------------------------------------------------------------------

 SCF Done:  E(UB3LYP) =  -1136.10820836     A.U. after   23 cycles

 The electronic state is 2-A.
 Alpha  occ. eigenvalues --  -38.43714 -38.43665 -38.43401 -38.43333 -38.43321
 Alpha  occ. eigenvalues --  -38.43273 -38.43212  -2.19747  -2.19630  -2.19560
 Alpha  occ. eigenvalues --   -2.19515  -2.19421  -2.19396  -2.19285  -1.13631
 Alpha  occ. eigenvalues --   -1.13469  -1.13437  -1.13406  -1.13385  -1.13346
 Alpha  occ. eigenvalues --   -1.13314  -1.13282  -1.13264  -1.13196  -1.13180
 Alpha  occ. eigenvalues --   -1.13113  -1.13077  -1.13030  -1.12983  -1.12982
 Alpha  occ. eigenvalues --   -1.12957  -1.12930  -1.12885  -1.12867  -1.12856
 Alpha  occ. eigenvalues --   -0.20875  -0.13753  -0.13092  -0.11260
 Alpha virt. eigenvalues --   -0.05285  -0.04741  -0.04380  -0.03271  -0.02935
 Alpha virt. eigenvalues --   -0.02188  -0.01294  -0.00771   0.00032   0.00325
 Alpha virt. eigenvalues --    0.00405   0.00458   0.00941   0.01053   0.01067

  Beta  occ. eigenvalues --  -38.43703 -38.43659 -38.43392 -38.43307 -38.43253
  Beta  occ. eigenvalues --  -38.43197 -38.43189  -2.19733  -2.19623  -2.19427
  Beta  occ. eigenvalues --   -2.19413  -2.19378  -2.19352  -2.19262  -1.13599
  Beta  occ. eigenvalues --   -1.13432  -1.13405  -1.13364  -1.13354  -1.13341
  Beta  occ. eigenvalues --   -1.13241  -1.13229  -1.13222  -1.13142  -1.13090
  Beta  occ. eigenvalues --   -1.13073  -1.13027  -1.12980  -1.12936  -1.12927
  Beta  occ. eigenvalues --   -1.12912  -1.12883  -1.12848  -1.12840  -1.12789
  Beta  occ. eigenvalues --   -0.20106  -0.13427  -0.12750
  Beta virt. eigenvalues --   -0.07153  -0.05287  -0.04722  -0.04389  -0.02383
  Beta virt. eigenvalues --   -0.02047  -0.01230  -0.01120  -0.00723   0.00156
  Beta virt. eigenvalues --    0.00330   0.00369   0.00426   0.00966   0.01050

 Mulliken charges and spin densities:
               1          2
     1  Na   0.507205   0.023757
     2  Na   0.540700  -0.014147
     3  Na   0.506216  -0.014319
     4  Na  -0.996219   0.566991
     5  Na  -0.936719   0.482297
     6  Na   0.341021  -0.009706
     7  Na   0.037795  -0.034872
 Sum of Mulliken charges =  -0.00000   1.00000

 Dipole moment (field-independent basis, Debye):
    X=              0.1362    Y=             -0.0511    Z=              0.0534  Tot=              0.1550
 Quadrupole moment (field-independent basis, Debye-Ang):
   XX=            -56.7571   YY=            -64.8312   ZZ=            -73.0717
   XY=              0.0165   XZ=              1.0669   YZ=              0.5221

 Normal termination of Gaussian 16 at Mon Nov 13 17:00:53 2023.
