 Gaussian 16, Revision B.01,
 Gaussian 16:  ES64L-G16RevB.01 20-Dec-2017

 -------------------------
 #P B3LYP/6-311+g(d) force
 -------------------------

 ------------------------------
 Gaussian input prepared by ASE
 ------------------------------
 Symbolic Z-matrix:
 Charge =  0 Multiplicity = 2

                         Standard orientation:
 ---------------------------------------------------------------------
 Center     Atomic      Atomic             Coordinates (Angstroms)
 Number     Number       Type             X           Y           Z
 ---------------------------------------------------------------------
      1         11           0        0.081362   -0.380552   -0.204904
      2         11           0        2.480084   -1.962629   -1.064864
      3         11           0        2.845544    0.641617    0.373698
      4         11           0        0.450905    2.190628    1.298426
      5         11           0       -1.292292    2.115151   -1.141459
      6         11           0       -2.888384   -0.371944   -0.638496
      7         11           0       -1.677220   -2.232272    1.377599
 ---------------------------------------------------------------------

 SCF Done:  E(UB3LYP) =  -1136.10525511     A.U. after   25 cycles

 The electronic state is 2-A.
 Alpha  occ. eigenvalues --  -38.44167 -38.44095 -38.43781 -38.43763 -38.43562
 Alpha  occ. eigenvalues --  -38.43415 -38.42951  -2.20144  -2.20077  -2.19685
 Alpha  occ. eigenvalues --   -2.19669  -2.19556  -2.19409  -2.19237  -1.13899
 Alpha  occ. eigenvalues --   -1.13863  -1.13826  -1.13796  -1.13760  -1.13698
 Alpha  occ. eigenvalues --   -1.13407  -1.13384  -1.13320  -1.13308  -1.13291
 Alpha  occ. eigenvalues --   -1.13288  -1.13270  -1.13229  -1.13165  -1.13134
 Alpha  occ. eigenvalues --   -1.13017  -1.12973  -1.12895  -1.12858  -1.12828
 Alpha  occ. eigenvalues --   -0.19217  -0.14183  -0.12711  -0.10818
 Alpha virt. eigenvalues --   -0.05692  -0.04863  -0.04332  -0.03449  -0.03347
 Alpha virt. eigenvalues --   -0.01643  -0.01605  -0.00941  -0.00297   0.00118
 Alpha virt. eigenvalues --    0.00294   0.00333   0.00713   0.00839   0.00912

  Beta  occ. eigenvalues --  -38.44155 -38.44077 -38.43744 -38.43713 -38.43523
  Beta  occ. eigenvalues --  -38.43375 -38.42932  -2.20127  -2.20051  -2.19617
  Beta  occ. eigenvalues --   -2.19577  -2.19485  -2.19337  -2.19211  -1.13892
  Beta  occ. eigenvalues --   -1.13814  -1.13806  -1.13749  -1.13733  -1.13681
  Beta  occ. eigenvalues --   -1.13366  -1.13327  -1.13278  -1.13265  -1.13240
  Beta  occ. eigenvalues --   -1.13229  -1.13204  -1.13163  -1.13120  -1.13081
  Beta  occ. eigenvalues --   -1.12967  -1.12916  -1.12853  -1.12819  -1.12798
  Beta  occ. eigenvalues --   -0.18623  -0.13682  -0.12373
  Beta virt. eigenvalues --   -0.07207  -0.05506  -0.04610  -0.04045  -0.02897
  Beta virt. eigenvalues --   -0.02763  -0.01568  -0.01032  -0.00847   0.00000
  Beta virt. eigenvalues --    0.00269   0.00371   0.00393   0.00826   0.00904

 Mulliken charges and spin densities:
               1          2
     1  Na  -4.177184   0.770837
     2  Na   0.705669  -0.016746
     3  Na   0.376003  -0.031455
     4  Na   0.579724   0.071726
     5  Na   0.482946  -0.046537
     6  Na   1.262701   0.212327
     7  Na   0.770141   0.039848
 Sum of Mulliken charges =  -0.00000   1.00000

 Dipole moment (field-independent basis, Debye):
    X=              0.0468    Y=             -0.0344    Z=              0.1901  Tot=              0.1987
 Quadrupole moment (field-independent basis, Debye-Ang):
   XX=            -58.8706   YY=            -65.7063   ZZ=            -69.5586
   XY=              0.0729   XZ=              0.6570   YZ=              0.0601

 Normal termination of Gaussian 16 at Mon Nov 13 14:59:50 2023.
