 Gaussian 16, Revision B.01,
 Gaussian 16:  ES64L-G16RevB.01 20-Dec-2017

 -------------------------
 #P B3LYP/6-311+g(d) force
 -------------------------

 ------------------------------
 Gaussian input prepared by ASE
 ------------------------------
 Symbolic Z-matrix:
 Charge =  0 Multiplicity = 2

                         Standard orientation:
 ---------------------------------------------------------------------
 Center     Atomic      Atomic             Coordinates (Angstroms)
 Number     Number       Type             X           Y           Z
 ---------------------------------------------------------------------
      1         11           0        0.086836   -0.836954   -1.133200
      2         11           0       -1.205070   -0.024534    1.591098
      3         11           0       -2.753609   -0.967190   -0.650695
      4         11           0       -1.427800    1.586748   -0.559089
      5         11           0        1.250061   -1.097036    1.318558
      6         11           0        1.144079    1.631406    0.327041
      7         11           0        2.905502   -0.292440   -0.893711
 ---------------------------------------------------------------------

 SCF Done:  E(UB3LYP) =  -1136.06080336     A.U. after   31 cycles

 The electronic state is 2-A.
 Alpha  occ. eigenvalues --  -38.44911 -38.44699 -38.44549 -38.44342 -38.43774
 Alpha  occ. eigenvalues --  -38.43697 -38.42738  -2.20959  -2.20919  -2.20812
 Alpha  occ. eigenvalues --   -2.20380  -2.20028  -2.19984  -2.18959  -1.14993
 Alpha  occ. eigenvalues --   -1.14881  -1.14707  -1.14623  -1.14593  -1.14517
 Alpha  occ. eigenvalues --   -1.14444  -1.14383  -1.14270  -1.14163  -1.14028
 Alpha  occ. eigenvalues --   -1.13968  -1.13854  -1.13676  -1.13631  -1.13577
 Alpha  occ. eigenvalues --   -1.13559  -1.13474  -1.12648  -1.12582  -1.12552
 Alpha  occ. eigenvalues --   -0.21680  -0.14952  -0.12644  -0.11546
 Alpha virt. eigenvalues --   -0.06300  -0.04520  -0.04171  -0.03511  -0.02424
 Alpha virt. eigenvalues --   -0.02375  -0.01794  -0.00451  -0.00296   0.00266
 Alpha virt. eigenvalues --    0.00577   0.00711   0.00914   0.00990   0.01081

  Beta  occ. eigenvalues --  -38.44889 -38.44628 -38.44470 -38.44332 -38.43748
  Beta  occ. eigenvalues --  -38.43654 -38.42720  -2.20914  -2.20799  -2.20678
  Beta  occ. eigenvalues --   -2.20364  -2.19962  -2.19934  -2.18934  -1.14873
  Beta  occ. eigenvalues --   -1.14832  -1.14633  -1.14573  -1.14555  -1.14444
  Beta  occ. eigenvalues --   -1.14376  -1.14307  -1.14162  -1.14123  -1.14014
  Beta  occ. eigenvalues --   -1.13932  -1.13816  -1.13616  -1.13584  -1.13519
  Beta  occ. eigenvalues --   -1.13511  -1.13415  -1.12637  -1.12566  -1.12476
  Beta  occ. eigenvalues --   -0.20813  -0.14713  -0.11301
  Beta virt. eigenvalues --   -0.08202  -0.06155  -0.04172  -0.03755  -0.02995
  Beta virt. eigenvalues --   -0.01770  -0.01696  -0.01553  -0.00300  -0.00115
  Beta virt. eigenvalues --    0.00308   0.00640   0.00785   0.00994   0.01042

 Mulliken charges and spin densities:
               1          2
     1  Na  -1.489647   0.609428
     2  Na  -0.002822  -0.033504
     3  Na   0.646604   0.046227
     4  Na   0.259672   0.076972
     5  Na  -0.194710   0.088137
     6  Na  -1.131396   0.457109
     7  Na   1.912298  -0.244368
 Sum of Mulliken charges =  -0.00000   1.00000

 Dipole moment (field-independent basis, Debye):
    X=              0.1640    Y=             -0.0018    Z=             -0.1957  Tot=              0.2553
 Quadrupole moment (field-independent basis, Debye-Ang):
   XX=            -51.6945   YY=            -77.7499   ZZ=            -66.6194
   XY=              0.8248   XZ=             -0.7143   YZ=             -2.6004

 Normal termination of Gaussian 16 at Mon Nov 13 19:52:58 2023.
