 Gaussian 16, Revision B.01,
 Gaussian 16:  ES64L-G16RevB.01 20-Dec-2017

 -------------------------
 #P B3LYP/6-311+g(d) force
 -------------------------

 ------------------------------
 Gaussian input prepared by ASE
 ------------------------------
 Symbolic Z-matrix:
 Charge =  0 Multiplicity = 2

                         Standard orientation:
 ---------------------------------------------------------------------
 Center     Atomic      Atomic             Coordinates (Angstroms)
 Number     Number       Type             X           Y           Z
 ---------------------------------------------------------------------
      1         11           0       -2.771032   -2.033730    0.364780
      2         11           0       -4.113691    0.398066   -0.768703
      3         11           0       -0.362366    3.258472   -0.060579
      4         11           0       -1.609800    0.687416    0.861003
      5         11           0        0.169451   -1.573820    0.005532
      6         11           0        3.064964   -1.054328   -0.575628
      7         11           0        5.622475    0.317923    0.173596
 ---------------------------------------------------------------------

 SCF Done:  E(UB3LYP) =  -1136.09639395     A.U. after   22 cycles

 The electronic state is 2-A.
 Alpha  occ. eigenvalues --  -38.45720 -38.45211 -38.44093 -38.44018 -38.43874
 Alpha  occ. eigenvalues --  -38.43488 -38.42949  -2.21622  -2.21040  -2.19997
 Alpha  occ. eigenvalues --   -2.19953  -2.19860  -2.19572  -2.18760  -1.15325
 Alpha  occ. eigenvalues --   -1.15249  -1.15224  -1.14715  -1.14659  -1.14656
 Alpha  occ. eigenvalues --   -1.13869  -1.13686  -1.13636  -1.13610  -1.13589
 Alpha  occ. eigenvalues --   -1.13577  -1.13567  -1.13499  -1.13430  -1.13258
 Alpha  occ. eigenvalues --   -1.13224  -1.13184  -1.12437  -1.12407  -1.12385
 Alpha  occ. eigenvalues --   -0.18205  -0.14604  -0.11822  -0.11534
 Alpha virt. eigenvalues --   -0.06622  -0.04942  -0.04401  -0.03520  -0.03336
 Alpha virt. eigenvalues --   -0.02260  -0.01525  -0.01437  -0.01000  -0.00781
 Alpha virt. eigenvalues --   -0.00130  -0.00048   0.00532   0.00603   0.00698

  Beta  occ. eigenvalues --  -38.45642 -38.45125 -38.44098 -38.43959 -38.43867
  Beta  occ. eigenvalues --  -38.43473 -38.42940  -2.21479  -2.20879  -2.19974
  Beta  occ. eigenvalues --   -2.19886  -2.19853  -2.19551  -2.18746  -1.15231
  Beta  occ. eigenvalues --   -1.15152  -1.15116  -1.14609  -1.14550  -1.14547
  Beta  occ. eigenvalues --   -1.13823  -1.13638  -1.13621  -1.13608  -1.13567
  Beta  occ. eigenvalues --   -1.13540  -1.13525  -1.13485  -1.13381  -1.13217
  Beta  occ. eigenvalues --   -1.13190  -1.13180  -1.12423  -1.12398  -1.12376
  Beta  occ. eigenvalues --   -0.17572  -0.13724  -0.11346
  Beta virt. eigenvalues --   -0.08373  -0.06031  -0.04783  -0.04122  -0.03165
  Beta virt. eigenvalues --   -0.02929  -0.01809  -0.01318  -0.00907  -0.00754
  Beta virt. eigenvalues --   -0.00616   0.00007   0.00087   0.00617   0.00658

 Mulliken charges and spin densities:
               1          2
     1  Na   0.813910   0.088478
     2  Na   0.231633   0.490828
     3  Na  -0.016946   0.091371
     4  Na  -1.072787  -0.177964
     5  Na  -0.503298   0.189325
     6  Na   0.519732   0.035893
     7  Na   0.027755   0.282070
 Sum of Mulliken charges =  -0.00000   1.00000

 Dipole moment (field-independent basis, Debye):
    X=             -0.1158    Y=             -0.0565    Z=             -0.5284  Tot=              0.5439
 Quadrupole moment (field-independent basis, Debye-Ang):
   XX=            -49.8612   YY=            -73.1045   ZZ=            -69.1340
   XY=              6.0338   XZ=              4.6099   YZ=             -1.6626

 Normal termination of Gaussian 16 at Mon Nov 13 15:06:10 2023.
