 Gaussian 16, Revision B.01,
 Gaussian 16:  ES64L-G16RevB.01 20-Dec-2017

 -------------------------
 #P B3LYP/6-311+g(d) force
 -------------------------

 ------------------------------
 Gaussian input prepared by ASE
 ------------------------------
 Symbolic Z-matrix:
 Charge =  0 Multiplicity = 2

                         Standard orientation:
 ---------------------------------------------------------------------
 Center     Atomic      Atomic             Coordinates (Angstroms)
 Number     Number       Type             X           Y           Z
 ---------------------------------------------------------------------
      1         11           0        0.003215   -0.000504    1.682916
      2         11           0       -2.029947   -0.396341    0.001681
      3         11           0       -0.247956   -2.050203    0.000224
      4         11           0       -1.001920    1.806171    0.001714
      5         11           0        1.873577   -0.869672   -0.002100
      6         11           0        1.407194    1.510897   -0.002340
      7         11           0       -0.004162   -0.000348   -1.682095
 ---------------------------------------------------------------------

 SCF Done:  E(UB3LYP) =  -1135.95066645     A.U. after   17 cycles

 The electronic state is 2-A.
 Alpha  occ. eigenvalues --  -38.45863 -38.45859 -38.45611 -38.45609 -38.45596
 Alpha  occ. eigenvalues --  -38.45594 -38.45582  -2.22509  -2.22430  -2.22187
 Alpha  occ. eigenvalues --   -2.22119  -2.22116  -2.21873  -2.21859  -1.17055
 Alpha  occ. eigenvalues --   -1.16686  -1.16686  -1.16669  -1.16644  -1.16367
 Alpha  occ. eigenvalues --   -1.16336  -1.16333  -1.15760  -1.15759  -1.15681
 Alpha  occ. eigenvalues --   -1.15549  -1.15414  -1.15401  -1.15349  -1.15348
 Alpha  occ. eigenvalues --   -1.15226  -1.15216  -1.15098  -1.15097  -1.14785
 Alpha  occ. eigenvalues --   -0.23875  -0.13988  -0.13983  -0.13588
 Alpha virt. eigenvalues --   -0.05527  -0.04001  -0.04001  -0.03925  -0.03922
 Alpha virt. eigenvalues --   -0.02932  -0.00439  -0.00436  -0.00152   0.00236
 Alpha virt. eigenvalues --    0.01139   0.01141   0.01327   0.01329   0.01382

  Beta  occ. eigenvalues --  -38.45752 -38.45748 -38.45589 -38.45587 -38.45574
  Beta  occ. eigenvalues --  -38.45571 -38.45560  -2.22371  -2.22233  -2.22103
  Beta  occ. eigenvalues --   -2.22090  -2.22083  -2.21844  -2.21829  -1.17006
  Beta  occ. eigenvalues --   -1.16667  -1.16645  -1.16625  -1.16623  -1.16250
  Beta  occ. eigenvalues --   -1.16190  -1.16187  -1.15663  -1.15663  -1.15611
  Beta  occ. eigenvalues --   -1.15437  -1.15303  -1.15290  -1.15230  -1.15229
  Beta  occ. eigenvalues --   -1.15217  -1.15207  -1.15084  -1.15083  -1.14775
  Beta  occ. eigenvalues --   -0.22989  -0.13509  -0.13504
  Beta virt. eigenvalues --   -0.09137  -0.05554  -0.03962  -0.03961  -0.02850
  Beta virt. eigenvalues --   -0.02848  -0.01895  -0.00387  -0.00385  -0.00003
  Beta virt. eigenvalues --    0.00254   0.01129   0.01131   0.01401   0.01403

 Mulliken charges and spin densities:
               1          2
     1  Na  -0.365870   0.400233
     2  Na   0.145164   0.039363
     3  Na   0.149272   0.040371
     4  Na   0.148173   0.040331
     5  Na   0.144873   0.039832
     6  Na   0.146482   0.040146
     7  Na  -0.368095   0.399723
 Sum of Mulliken charges =  -0.00000   1.00000

 Dipole moment (field-independent basis, Debye):
    X=             -0.0078    Y=             -0.0020    Z=              0.0021  Tot=              0.0083
 Quadrupole moment (field-independent basis, Debye-Ang):
   XX=            -68.4072   YY=            -68.4494   ZZ=            -66.7999
   XY=              0.0007   XZ=             -0.0124   YZ=              0.0003

 Normal termination of Gaussian 16 at Mon Nov 13 20:51:04 2023.
