 Gaussian 16, Revision B.01,
 Gaussian 16:  ES64L-G16RevB.01 20-Dec-2017

 -------------------------
 #P B3LYP/6-311+g(d) force
 -------------------------

 ------------------------------
 Gaussian input prepared by ASE
 ------------------------------
 Symbolic Z-matrix:
 Charge =  0 Multiplicity = 2

                         Standard orientation:
 ---------------------------------------------------------------------
 Center     Atomic      Atomic             Coordinates (Angstroms)
 Number     Number       Type             X           Y           Z
 ---------------------------------------------------------------------
      1         11           0       -1.465408    1.115127   -0.549799
      2         11           0        0.313227    0.999514    1.860859
      3         11           0       -3.619760   -0.959375   -0.779825
      4         11           0       -1.293521   -1.405641    1.062893
      5         11           0        1.213685    2.463907   -0.598877
      6         11           0        1.043852   -0.531342   -0.607884
      7         11           0        3.807925   -1.682190   -0.387368
 ---------------------------------------------------------------------

 SCF Done:  E(UB3LYP) =  -1136.09544973     A.U. after   24 cycles

 The electronic state is 2-A.
 Alpha  occ. eigenvalues --  -38.44559 -38.44108 -38.44047 -38.43801 -38.43667
 Alpha  occ. eigenvalues --  -38.43534 -38.43149  -2.20463  -2.20214  -2.20122
 Alpha  occ. eigenvalues --   -2.19799  -2.19715  -2.19469  -2.19299  -1.14192
 Alpha  occ. eigenvalues --   -1.14142  -1.14078  -1.14076  -1.13919  -1.13837
 Alpha  occ. eigenvalues --   -1.13821  -1.13723  -1.13685  -1.13574  -1.13447
 Alpha  occ. eigenvalues --   -1.13427  -1.13406  -1.13353  -1.13230  -1.13209
 Alpha  occ. eigenvalues --   -1.13114  -1.13107  -1.12972  -1.12907  -1.12874
 Alpha  occ. eigenvalues --   -0.20170  -0.14021  -0.11973  -0.11480
 Alpha virt. eigenvalues --   -0.06478  -0.05151  -0.04049  -0.03072  -0.02663
 Alpha virt. eigenvalues --   -0.02077  -0.01897  -0.01302  -0.00627   0.00052
 Alpha virt. eigenvalues --    0.00172   0.00411   0.00689   0.00799   0.00828

  Beta  occ. eigenvalues --  -38.44533 -38.44029 -38.43995 -38.43777 -38.43664
  Beta  occ. eigenvalues --  -38.43503 -38.43128  -2.20414  -2.20075  -2.20033
  Beta  occ. eigenvalues --   -2.19757  -2.19664  -2.19463  -2.19269  -1.14161
  Beta  occ. eigenvalues --   -1.14099  -1.14041  -1.13986  -1.13830  -1.13765
  Beta  occ. eigenvalues --   -1.13728  -1.13669  -1.13575  -1.13531  -1.13416
  Beta  occ. eigenvalues --   -1.13397  -1.13362  -1.13270  -1.13203  -1.13196
  Beta  occ. eigenvalues --   -1.13110  -1.13101  -1.12908  -1.12895  -1.12847
  Beta  occ. eigenvalues --   -0.19344  -0.13739  -0.11654
  Beta virt. eigenvalues --   -0.07519  -0.06176  -0.04980  -0.03599  -0.02792
  Beta virt. eigenvalues --   -0.02035  -0.01748  -0.01514  -0.01060  -0.00255
  Beta virt. eigenvalues --    0.00118   0.00208   0.00540   0.00748   0.00859

 Mulliken charges and spin densities:
               1          2
     1  Na   0.870133   0.306942
     2  Na  -0.396217   0.180297
     3  Na   0.464282   0.069937
     4  Na   0.415314   0.121126
     5  Na   0.387563   0.079678
     6  Na  -1.328325   0.308007
     7  Na  -0.412750  -0.065986
 Sum of Mulliken charges =  -0.00000   1.00000

 Dipole moment (field-independent basis, Debye):
    X=             -0.7134    Y=              0.6099    Z=              0.4995  Tot=              1.0632
 Quadrupole moment (field-independent basis, Debye-Ang):
   XX=            -55.4401   YY=            -68.5164   ZZ=            -69.3424
   XY=              5.6058   XZ=              2.5723   YZ=             -0.7615

 Normal termination of Gaussian 16 at Mon Nov 13 19:09:47 2023.
