 Gaussian 16, Revision B.01,
 Gaussian 16:  ES64L-G16RevB.01 20-Dec-2017

 -------------------------
 #P B3LYP/6-311+g(d) force
 -------------------------

 ------------------------------
 Gaussian input prepared by ASE
 ------------------------------
 Symbolic Z-matrix:
 Charge =  0 Multiplicity = 2

                         Standard orientation:
 ---------------------------------------------------------------------
 Center     Atomic      Atomic             Coordinates (Angstroms)
 Number     Number       Type             X           Y           Z
 ---------------------------------------------------------------------
      1         11           0        1.236862    1.349794   -1.059022
      2         11           0        0.925034   -1.627942   -1.281043
      3         11           0        3.287060   -0.465013    0.146439
      4         11           0        1.214794    0.803707    1.893457
      5         11           0       -1.018313   -0.961746    0.917125
      6         11           0       -1.761972    1.371205   -0.824252
      7         11           0       -3.883464   -0.470005    0.207297
 ---------------------------------------------------------------------

 SCF Done:  E(UB3LYP) =  -1136.09095743     A.U. after   31 cycles

 The electronic state is 2-A.
 Alpha  occ. eigenvalues --  -38.45749 -38.45438 -38.44345 -38.43745 -38.43626
 Alpha  occ. eigenvalues --  -38.43378 -38.42923  -2.21621  -2.21412  -2.20417
 Alpha  occ. eigenvalues --   -2.19747  -2.19638  -2.19495  -2.18919  -1.15329
 Alpha  occ. eigenvalues --   -1.15301  -1.15233  -1.15135  -1.15086  -1.15030
 Alpha  occ. eigenvalues --   -1.14141  -1.14101  -1.14049  -1.13509  -1.13407
 Alpha  occ. eigenvalues --   -1.13365  -1.13327  -1.13314  -1.13227  -1.13181
 Alpha  occ. eigenvalues --   -1.13132  -1.13036  -1.12605  -1.12559  -1.12525
 Alpha  occ. eigenvalues --   -0.20171  -0.14970  -0.11937  -0.10821
 Alpha virt. eigenvalues --   -0.07759  -0.04809  -0.03960  -0.03316  -0.03064
 Alpha virt. eigenvalues --   -0.02367  -0.01972  -0.00958  -0.00500  -0.00080
 Alpha virt. eigenvalues --    0.00202   0.00260   0.00408   0.00860   0.00904

  Beta  occ. eigenvalues --  -38.45752 -38.45431 -38.44305 -38.43709 -38.43564
  Beta  occ. eigenvalues --  -38.43324 -38.42891  -2.21626  -2.21404  -2.20348
  Beta  occ. eigenvalues --   -2.19682  -2.19525  -2.19400  -2.18865  -1.15334
  Beta  occ. eigenvalues --   -1.15294  -1.15237  -1.15135  -1.15044  -1.15028
  Beta  occ. eigenvalues --   -1.14089  -1.14033  -1.14002  -1.13449  -1.13356
  Beta  occ. eigenvalues --   -1.13301  -1.13280  -1.13233  -1.13139  -1.13105
  Beta  occ. eigenvalues --   -1.13059  -1.12959  -1.12573  -1.12516  -1.12467
  Beta  occ. eigenvalues --   -0.19391  -0.14802  -0.10595
  Beta virt. eigenvalues --   -0.07739  -0.07543  -0.04399  -0.03607  -0.03036
  Beta virt. eigenvalues --   -0.02792  -0.01756  -0.01246  -0.00732  -0.00268
  Beta virt. eigenvalues --   -0.00026   0.00252   0.00382   0.00439   0.00925

 Mulliken charges and spin densities:
               1          2
     1  Na  -0.429797   0.240752
     2  Na  -0.058244   0.197135
     3  Na   1.020529   0.036669
     4  Na   0.242502   0.386834
     5  Na  -0.563585   0.097802
     6  Na  -0.739160   0.029924
     7  Na   0.527755   0.010884
 Sum of Mulliken charges =  -0.00000   1.00000

 Dipole moment (field-independent basis, Debye):
    X=             -0.8273    Y=              0.2219    Z=              0.2466  Tot=              0.8914
 Quadrupole moment (field-independent basis, Debye-Ang):
   XX=            -42.1737   YY=            -80.8650   ZZ=            -70.2114
   XY=              1.1167   XZ=              1.3521   YZ=             -3.4670

 Normal termination of Gaussian 16 at Mon Nov 13 17:44:33 2023.
