 Gaussian 16, Revision B.01,
 Gaussian 16:  ES64L-G16RevB.01 20-Dec-2017

 -------------------------
 #P B3LYP/6-311+g(d) force
 -------------------------

 ------------------------------
 Gaussian input prepared by ASE
 ------------------------------
 Symbolic Z-matrix:
 Charge =  0 Multiplicity = 2

                         Standard orientation:
 ---------------------------------------------------------------------
 Center     Atomic      Atomic             Coordinates (Angstroms)
 Number     Number       Type             X           Y           Z
 ---------------------------------------------------------------------
      1         11           0        0.133033   -2.314616    0.066452
      2         11           0       -0.845460   -0.549634    2.285626
      3         11           0       -4.293453    0.749721   -0.947496
      4         11           0       -1.369099    0.205290   -0.566890
      5         11           0        2.689834   -1.617363   -1.338313
      6         11           0        1.419054    0.351799    0.537410
      7         11           0        2.266091    3.174803   -0.036788
 ---------------------------------------------------------------------

 SCF Done:  E(UB3LYP) =  -1136.09403429     A.U. after   26 cycles

 The electronic state is 2-A.
 Alpha  occ. eigenvalues --  -38.45178 -38.44906 -38.44597 -38.44012 -38.43517
 Alpha  occ. eigenvalues --  -38.43144 -38.42766  -2.21177  -2.20727  -2.20502
 Alpha  occ. eigenvalues --   -2.20059  -2.19595  -2.18956  -2.18940  -1.14910
 Alpha  occ. eigenvalues --   -1.14786  -1.14780  -1.14427  -1.14350  -1.14344
 Alpha  occ. eigenvalues --   -1.14215  -1.14137  -1.14115  -1.13820  -1.13712
 Alpha  occ. eigenvalues --   -1.13668  -1.13307  -1.13244  -1.13204  -1.12735
 Alpha  occ. eigenvalues --   -1.12645  -1.12632  -1.12587  -1.12580  -1.12459
 Alpha  occ. eigenvalues --   -0.19445  -0.13619  -0.11961  -0.11691
 Alpha virt. eigenvalues --   -0.06337  -0.05158  -0.04326  -0.03197  -0.02512
 Alpha virt. eigenvalues --   -0.02191  -0.02119  -0.01098  -0.00896  -0.00199
 Alpha virt. eigenvalues --    0.00069   0.00264   0.00510   0.00686   0.00847

  Beta  occ. eigenvalues --  -38.45084 -38.44839 -38.44547 -38.44003 -38.43503
  Beta  occ. eigenvalues --  -38.43151 -38.42743  -2.21006  -2.20603  -2.20408
  Beta  occ. eigenvalues --   -2.20049  -2.19579  -2.18961  -2.18915  -1.14789
  Beta  occ. eigenvalues --   -1.14669  -1.14662  -1.14342  -1.14266  -1.14261
  Beta  occ. eigenvalues --   -1.14158  -1.14067  -1.14051  -1.13783  -1.13688
  Beta  occ. eigenvalues --   -1.13668  -1.13301  -1.13221  -1.13155  -1.12732
  Beta  occ. eigenvalues --   -1.12632  -1.12602  -1.12591  -1.12541  -1.12455
  Beta  occ. eigenvalues --   -0.18749  -0.12856  -0.11557
  Beta virt. eigenvalues --   -0.08325  -0.05829  -0.05010  -0.03860  -0.02948
  Beta virt. eigenvalues --   -0.01977  -0.01777  -0.01680  -0.00981  -0.00604
  Beta virt. eigenvalues --   -0.00073   0.00134   0.00403   0.00593   0.00801

 Mulliken charges and spin densities:
               1          2
     1  Na   1.675401   0.232766
     2  Na   0.556675   0.192770
     3  Na  -0.115420   0.343728
     4  Na  -2.618741   0.051383
     5  Na  -0.041844   0.111454
     6  Na   0.964419   0.142995
     7  Na  -0.420491  -0.075096
 Sum of Mulliken charges =  -0.00000   1.00000

 Dipole moment (field-independent basis, Debye):
    X=             -0.9005    Y=             -0.7853    Z=              0.3108  Tot=              1.2346
 Quadrupole moment (field-independent basis, Debye-Ang):
   XX=            -57.9331   YY=            -69.3301   ZZ=            -65.0263
   XY=             -2.5361   XZ=             -3.3557   YZ=             -0.8217

 Normal termination of Gaussian 16 at Mon Nov 13 18:51:54 2023.
