 Gaussian 16, Revision B.01,
 Gaussian 16:  ES64L-G16RevB.01 20-Dec-2017

 -------------------------
 #P B3LYP/6-311+g(d) force
 -------------------------

 ------------------------------
 Gaussian input prepared by ASE
 ------------------------------
 Symbolic Z-matrix:
 Charge =  0 Multiplicity = 2

                         Standard orientation:
 ---------------------------------------------------------------------
 Center     Atomic      Atomic             Coordinates (Angstroms)
 Number     Number       Type             X           Y           Z
 ---------------------------------------------------------------------
      1         11           0       -0.081495   -0.357982    0.541218
      2         11           0        4.489897   -1.720877   -0.857721
      3         11           0        2.841665   -0.301549    1.207634
      4         11           0        1.574543    2.031673   -0.191554
      5         11           0       -1.414255    2.261833   -0.056125
      6         11           0       -2.599142   -0.293924   -1.089507
      7         11           0       -4.811212   -1.619174    0.446053
 ---------------------------------------------------------------------

 SCF Done:  E(UB3LYP) =  -1136.09317852     A.U. after   25 cycles

 The electronic state is 2-A.
 Alpha  occ. eigenvalues --  -38.45278 -38.45035 -38.44516 -38.44278 -38.43634
 Alpha  occ. eigenvalues --  -38.43483 -38.43282  -2.21251  -2.20820  -2.20607
 Alpha  occ. eigenvalues --   -2.20255  -2.19636  -2.19331  -2.19286  -1.14983
 Alpha  occ. eigenvalues --   -1.14921  -1.14884  -1.14534  -1.14474  -1.14466
 Alpha  occ. eigenvalues --   -1.14374  -1.14250  -1.14225  -1.13933  -1.13919
 Alpha  occ. eigenvalues --   -1.13854  -1.13296  -1.13282  -1.13247  -1.13101
 Alpha  occ. eigenvalues --   -1.12977  -1.12967  -1.12945  -1.12935  -1.12826
 Alpha  occ. eigenvalues --   -0.18774  -0.14836  -0.12313  -0.10003
 Alpha virt. eigenvalues --   -0.07306  -0.05579  -0.04558  -0.03422  -0.03068
 Alpha virt. eigenvalues --   -0.02384  -0.01928  -0.01166  -0.00905  -0.00326
 Alpha virt. eigenvalues --   -0.00232   0.00293   0.00337   0.00441   0.00531

  Beta  occ. eigenvalues --  -38.45264 -38.45051 -38.44462 -38.44264 -38.43603
  Beta  occ. eigenvalues --  -38.43399 -38.43259  -2.21229  -2.20851  -2.20511
  Beta  occ. eigenvalues --   -2.20231  -2.19581  -2.19257  -2.19172  -1.14957
  Beta  occ. eigenvalues --   -1.14898  -1.14862  -1.14554  -1.14495  -1.14484
  Beta  occ. eigenvalues --   -1.14292  -1.14190  -1.14161  -1.13915  -1.13892
  Beta  occ. eigenvalues --   -1.13825  -1.13264  -1.13237  -1.13196  -1.13013
  Beta  occ. eigenvalues --   -1.12955  -1.12918  -1.12842  -1.12841  -1.12739
  Beta  occ. eigenvalues --   -0.18240  -0.14493  -0.11877
  Beta virt. eigenvalues --   -0.07205  -0.06376  -0.05370  -0.04146  -0.03099
  Beta virt. eigenvalues --   -0.02921  -0.01952  -0.01740  -0.00829  -0.00726
  Beta virt. eigenvalues --   -0.00063  -0.00027   0.00325   0.00543   0.00565

 Mulliken charges and spin densities:
               1          2
     1  Na  -1.900892   0.111498
     2  Na  -0.020508   0.436564
     3  Na   0.593380   0.004275
     4  Na   0.595216   0.129933
     5  Na  -0.292559   0.180350
     6  Na   1.180869   0.266717
     7  Na  -0.155506  -0.129337
 Sum of Mulliken charges =  -0.00000   1.00000

 Dipole moment (field-independent basis, Debye):
    X=             -1.7749    Y=              0.7183    Z=              0.4771  Tot=              1.9733
 Quadrupole moment (field-independent basis, Debye-Ang):
   XX=            -65.7204   YY=            -68.4930   ZZ=            -69.5519
   XY=              7.5142   XZ=             -2.9972   YZ=              1.8358

 Normal termination of Gaussian 16 at Mon Nov 13 14:58:21 2023.
