 Gaussian 16, Revision B.01,
 Gaussian 16:  ES64L-G16RevB.01 20-Dec-2017

 -------------------------
 #P B3LYP/6-311+g(d) force
 -------------------------

 ------------------------------
 Gaussian input prepared by ASE
 ------------------------------
 Symbolic Z-matrix:
 Charge =  0 Multiplicity = 2

                         Standard orientation:
 ---------------------------------------------------------------------
 Center     Atomic      Atomic             Coordinates (Angstroms)
 Number     Number       Type             X           Y           Z
 ---------------------------------------------------------------------
      1         11           0       -1.324939    0.649018    1.957805
      2         11           0       -2.190591   -2.079598    1.048989
      3         11           0       -2.762621   -0.979026   -1.684645
      4         11           0       -2.203397    1.790998   -0.673387
      5         11           0        0.714022    1.654786    0.003697
      6         11           0        2.460932   -0.654674   -0.777957
      7         11           0        5.306594   -0.381504    0.125498
 ---------------------------------------------------------------------

 SCF Done:  E(UB3LYP) =  -1136.09870777     A.U. after   22 cycles

 The electronic state is 2-A.
 Alpha  occ. eigenvalues --  -38.45374 -38.44678 -38.44350 -38.44261 -38.43562
 Alpha  occ. eigenvalues --  -38.43530 -38.43320  -2.21165  -2.20545  -2.20357
 Alpha  occ. eigenvalues --   -2.20274  -2.19537  -2.19450  -2.19236  -1.14864
 Alpha  occ. eigenvalues --   -1.14813  -1.14807  -1.14260  -1.14177  -1.14166
 Alpha  occ. eigenvalues --   -1.14131  -1.14041  -1.14010  -1.13943  -1.13921
 Alpha  occ. eigenvalues --   -1.13846  -1.13202  -1.13185  -1.13161  -1.13152
 Alpha  occ. eigenvalues --   -1.13120  -1.13076  -1.12911  -1.12863  -1.12820
 Alpha  occ. eigenvalues --   -0.18568  -0.14337  -0.11686  -0.11533
 Alpha virt. eigenvalues --   -0.07406  -0.04240  -0.03915  -0.03639  -0.03129
 Alpha virt. eigenvalues --   -0.02929  -0.02706  -0.00918  -0.00797  -0.00358
 Alpha virt. eigenvalues --   -0.00041   0.00043   0.00305   0.00695   0.00866

  Beta  occ. eigenvalues --  -38.45370 -38.44678 -38.44299 -38.44191 -38.43550
  Beta  occ. eigenvalues --  -38.43482 -38.43284  -2.21157  -2.20545  -2.20267
  Beta  occ. eigenvalues --   -2.20148  -2.19519  -2.19363  -2.19172  -1.14859
  Beta  occ. eigenvalues --   -1.14808  -1.14802  -1.14257  -1.14175  -1.14166
  Beta  occ. eigenvalues --   -1.14063  -1.13969  -1.13932  -1.13858  -1.13825
  Beta  occ. eigenvalues --   -1.13754  -1.13192  -1.13157  -1.13140  -1.13102
  Beta  occ. eigenvalues --   -1.13045  -1.13018  -1.12852  -1.12823  -1.12767
  Beta  occ. eigenvalues --   -0.17845  -0.14152  -0.11516
  Beta virt. eigenvalues --   -0.07312  -0.07274  -0.04232  -0.03629  -0.03133
  Beta virt. eigenvalues --   -0.03015  -0.02414  -0.01799  -0.00842  -0.00477
  Beta virt. eigenvalues --   -0.00197  -0.00044   0.00276   0.00345   0.00755

 Mulliken charges and spin densities:
               1          2
     1  Na   0.199596   0.407754
     2  Na  -0.018058  -0.116002
     3  Na  -0.181124   0.513419
     4  Na   0.660714   0.086288
     5  Na  -0.820121   0.194165
     6  Na  -0.548992   0.002079
     7  Na   0.707985  -0.087702
 Sum of Mulliken charges =  -0.00000   1.00000

 Dipole moment (field-independent basis, Debye):
    X=              1.8249    Y=              0.2845    Z=              0.2928  Tot=              1.8700
 Quadrupole moment (field-independent basis, Debye-Ang):
   XX=            -55.1536   YY=            -72.5943   ZZ=            -69.3770
   XY=             -3.7247   XZ=              1.7672   YZ=              0.6029

 Normal termination of Gaussian 16 at Mon Nov 13 14:53:09 2023.
