 Gaussian 16, Revision B.01,
 Gaussian 16:  ES64L-G16RevB.01 20-Dec-2017

 -------------------------
 #P B3LYP/6-311+g(d) force
 -------------------------

 ------------------------------
 Gaussian input prepared by ASE
 ------------------------------
 Symbolic Z-matrix:
 Charge =  0 Multiplicity = 2

                         Standard orientation:
 ---------------------------------------------------------------------
 Center     Atomic      Atomic             Coordinates (Angstroms)
 Number     Number       Type             X           Y           Z
 ---------------------------------------------------------------------
      1         11           0        0.906693    0.068841    1.696257
      2         11           0        0.338727    1.871551   -0.299301
      3         11           0       -4.435434   -0.408721   -0.393299
      4         11           0       -1.851649    0.277533    0.769219
      5         11           0        0.055686   -0.712616   -1.201999
      6         11           0        2.185966   -1.815526    0.148744
      7         11           0        2.800010    0.718939   -0.719621
 ---------------------------------------------------------------------

 SCF Done:  E(UB3LYP) =  -1136.05681884     A.U. after   30 cycles

 The electronic state is 2-A.
 Alpha  occ. eigenvalues --  -38.45563 -38.45427 -38.45342 -38.44228 -38.43618
 Alpha  occ. eigenvalues --  -38.43492 -38.43048  -2.21623  -2.21476  -2.21364
 Alpha  occ. eigenvalues --   -2.20502  -2.19744  -2.19606  -2.19274  -1.15429
 Alpha  occ. eigenvalues --   -1.15359  -1.15302  -1.15187  -1.15162  -1.15088
 Alpha  occ. eigenvalues --   -1.15056  -1.15000  -1.14986  -1.14263  -1.14232
 Alpha  occ. eigenvalues --   -1.14124  -1.13508  -1.13381  -1.13338  -1.13272
 Alpha  occ. eigenvalues --   -1.13215  -1.13185  -1.12958  -1.12875  -1.12836
 Alpha  occ. eigenvalues --   -0.21240  -0.14609  -0.12037  -0.11473
 Alpha virt. eigenvalues --   -0.07973  -0.04241  -0.03834  -0.03294  -0.02978
 Alpha virt. eigenvalues --   -0.02200  -0.02084  -0.01004  -0.00790  -0.00075
 Alpha virt. eigenvalues --    0.00201   0.00374   0.00391   0.00785   0.01045

  Beta  occ. eigenvalues --  -38.45557 -38.45389 -38.45298 -38.44133 -38.43593
  Beta  occ. eigenvalues --  -38.43474 -38.43021  -2.21562  -2.21400  -2.21354
  Beta  occ. eigenvalues --   -2.20331  -2.19706  -2.19580  -2.19235  -1.15395
  Beta  occ. eigenvalues --   -1.15320  -1.15209  -1.15125  -1.15112  -1.15083
  Beta  occ. eigenvalues --   -1.14992  -1.14978  -1.14977  -1.14153  -1.14115
  Beta  occ. eigenvalues --   -1.13994  -1.13487  -1.13329  -1.13291  -1.13257
  Beta  occ. eigenvalues --   -1.13204  -1.13113  -1.12936  -1.12853  -1.12743
  Beta  occ. eigenvalues --   -0.20383  -0.14364  -0.11261
  Beta virt. eigenvalues --   -0.07895  -0.07514  -0.04130  -0.03346  -0.03056
  Beta virt. eigenvalues --   -0.02767  -0.01539  -0.01216  -0.00764  -0.00564
  Beta virt. eigenvalues --    0.00005   0.00220   0.00398   0.00524   0.00857

 Mulliken charges and spin densities:
               1          2
     1  Na  -0.183586   0.190131
     2  Na  -0.091721   0.237370
     3  Na   0.316611   0.008176
     4  Na  -0.228730   0.083545
     5  Na  -0.786406   0.324674
     6  Na   0.837163   0.058602
     7  Na   0.136671   0.097503
 Sum of Mulliken charges =  -0.00000   1.00000

 Dipole moment (field-independent basis, Debye):
    X=             -0.5835    Y=              0.4551    Z=             -0.0437  Tot=              0.7413
 Quadrupole moment (field-independent basis, Debye-Ang):
   XX=            -48.9860   YY=            -76.2095   ZZ=            -69.8384
   XY=              3.1604   XZ=              1.7822   YZ=             -0.9074

 Normal termination of Gaussian 16 at Mon Nov 13 18:23:58 2023.
