 Gaussian 16, Revision B.01,
 Gaussian 16:  ES64L-G16RevB.01 20-Dec-2017

 -------------------------
 #P B3LYP/6-311+g(d) force
 -------------------------

 ------------------------------
 Gaussian input prepared by ASE
 ------------------------------
 Symbolic Z-matrix:
 Charge =  0 Multiplicity = 2

                         Standard orientation:
 ---------------------------------------------------------------------
 Center     Atomic      Atomic             Coordinates (Angstroms)
 Number     Number       Type             X           Y           Z
 ---------------------------------------------------------------------
      1         11           0        1.098106    0.253874   -1.941632
      2         11           0        2.355109    0.617117    0.467322
      3         11           0       -3.885664   -0.257424   -0.064572
      4         11           0       -1.063720   -0.529944   -0.445362
      5         11           0        1.402271   -2.157954   -0.054263
      6         11           0        0.199119   -0.170325    1.963139
      7         11           0       -0.105220    2.244657    0.075368
 ---------------------------------------------------------------------

 SCF Done:  E(UB3LYP) =  -1136.07783244     A.U. after   25 cycles

 The electronic state is 2-A.
 Alpha  occ. eigenvalues --  -38.45112 -38.44986 -38.44787 -38.44385 -38.43297
 Alpha  occ. eigenvalues --  -38.42572 -38.42498  -2.21145  -2.20954  -2.20915
 Alpha  occ. eigenvalues --   -2.20583  -2.19590  -2.18640  -2.18563  -1.14992
 Alpha  occ. eigenvalues --   -1.14898  -1.14802  -1.14744  -1.14688  -1.14649
 Alpha  occ. eigenvalues --   -1.14549  -1.14538  -1.14479  -1.14207  -1.14151
 Alpha  occ. eigenvalues --   -1.14131  -1.13288  -1.13262  -1.13161  -1.12348
 Alpha  occ. eigenvalues --   -1.12296  -1.12276  -1.12263  -1.12213  -1.12147
 Alpha  occ. eigenvalues --   -0.21112  -0.13371  -0.12575  -0.12041
 Alpha virt. eigenvalues --   -0.06592  -0.03798  -0.03510  -0.03379  -0.02910
 Alpha virt. eigenvalues --   -0.02861  -0.01947  -0.00481  -0.00366   0.00179
 Alpha virt. eigenvalues --    0.00445   0.00516   0.00598   0.00898   0.01106

  Beta  occ. eigenvalues --  -38.45125 -38.44882 -38.44688 -38.44354 -38.43266
  Beta  occ. eigenvalues --  -38.42561 -38.42486  -2.20958  -2.20939  -2.20776
  Beta  occ. eigenvalues --   -2.20534  -2.19542  -2.18626  -2.18549  -1.14882
  Beta  occ. eigenvalues --   -1.14757  -1.14705  -1.14679  -1.14593  -1.14562
  Beta  occ. eigenvalues --   -1.14555  -1.14550  -1.14348  -1.14142  -1.14111
  Beta  occ. eigenvalues --   -1.14057  -1.13261  -1.13166  -1.13136  -1.12346
  Beta  occ. eigenvalues --   -1.12293  -1.12259  -1.12211  -1.12154  -1.12142
  Beta  occ. eigenvalues --   -0.20195  -0.13215  -0.11685
  Beta virt. eigenvalues --   -0.08231  -0.06429  -0.03622  -0.03113  -0.02815
  Beta virt. eigenvalues --   -0.02229  -0.01992  -0.01817  -0.00445  -0.00123
  Beta virt. eigenvalues --    0.00217   0.00461   0.00577   0.00745   0.00935

 Mulliken charges and spin densities:
               1          2
     1  Na  -0.525342   0.102612
     2  Na   0.693393   0.244392
     3  Na   0.583704  -0.066779
     4  Na   0.603715   0.461514
     5  Na  -0.622327  -0.070948
     6  Na  -0.433735   0.397659
     7  Na  -0.299408  -0.068450
 Sum of Mulliken charges =  -0.00000   1.00000

 Dipole moment (field-independent basis, Debye):
    X=             -0.5387    Y=              0.2079    Z=              0.1052  Tot=              0.5869
 Quadrupole moment (field-independent basis, Debye-Ang):
   XX=            -53.8102   YY=            -73.6114   ZZ=            -65.7109
   XY=             -1.1136   XZ=             -0.7054   YZ=              0.3539

 Normal termination of Gaussian 16 at Mon Nov 13 18:52:18 2023.
