 Gaussian 16, Revision B.01,
 Gaussian 16:  ES64L-G16RevB.01 20-Dec-2017

 -------------------------
 #P B3LYP/6-311+g(d) force
 -------------------------

 ------------------------------
 Gaussian input prepared by ASE
 ------------------------------
 Symbolic Z-matrix:
 Charge =  0 Multiplicity = 2

                         Standard orientation:
 ---------------------------------------------------------------------
 Center     Atomic      Atomic             Coordinates (Angstroms)
 Number     Number       Type             X           Y           Z
 ---------------------------------------------------------------------
      1         11           0       -1.900207   -2.540107    0.203127
      2         11           0       -4.106097   -0.528035   -0.014167
      3         11           0       -1.672235    3.272734   -0.100994
      4         11           0       -1.260076    0.318554   -0.450724
      5         11           0        1.442281    0.138137    0.854460
      6         11           0        4.156046    1.089699    0.001266
      7         11           0        3.340288   -1.750982   -0.492968
 ---------------------------------------------------------------------

 SCF Done:  E(UB3LYP) =  -1136.10127982     A.U. after   22 cycles

 The electronic state is 2-A.
 Alpha  occ. eigenvalues --  -38.45713 -38.44884 -38.44193 -38.43805 -38.43244
 Alpha  occ. eigenvalues --  -38.42937 -38.42685  -2.21593  -2.20798  -2.20195
 Alpha  occ. eigenvalues --   -2.19722  -2.19143  -2.18788  -2.18744  -1.15312
 Alpha  occ. eigenvalues --   -1.15256  -1.15231  -1.14496  -1.14429  -1.14405
 Alpha  occ. eigenvalues --   -1.13900  -1.13844  -1.13802  -1.13447  -1.13358
 Alpha  occ. eigenvalues --   -1.13337  -1.12886  -1.12791  -1.12760  -1.12556
 Alpha  occ. eigenvalues --   -1.12495  -1.12435  -1.12393  -1.12375  -1.12287
 Alpha  occ. eigenvalues --   -0.17854  -0.15300  -0.11284  -0.10447
 Alpha virt. eigenvalues --   -0.06571  -0.05025  -0.04508  -0.03626  -0.03115
 Alpha virt. eigenvalues --   -0.02066  -0.01649  -0.00983  -0.00733  -0.00483
 Alpha virt. eigenvalues --   -0.00099   0.00207   0.00434   0.00532   0.00589

  Beta  occ. eigenvalues --  -38.45705 -38.44828 -38.44144 -38.43743 -38.43241
  Beta  occ. eigenvalues --  -38.42941 -38.42657  -2.21585  -2.20694  -2.20113
  Beta  occ. eigenvalues --   -2.19606  -2.19143  -2.18758  -2.18739  -1.15315
  Beta  occ. eigenvalues --   -1.15243  -1.15186  -1.14429  -1.14357  -1.14330
  Beta  occ. eigenvalues --   -1.13814  -1.13793  -1.13732  -1.13380  -1.13277
  Beta  occ. eigenvalues --   -1.13256  -1.12887  -1.12795  -1.12716  -1.12540
  Beta  occ. eigenvalues --   -1.12426  -1.12412  -1.12393  -1.12369  -1.12274
  Beta  occ. eigenvalues --   -0.17093  -0.14797  -0.11168
  Beta virt. eigenvalues --   -0.06789  -0.06374  -0.04678  -0.04242  -0.03115
  Beta virt. eigenvalues --   -0.02917  -0.01677  -0.01275  -0.00978  -0.00548
  Beta virt. eigenvalues --   -0.00202   0.00132   0.00394   0.00513   0.00674

 Mulliken charges and spin densities:
               1          2
     1  Na   0.565841   0.034308
     2  Na   0.477597   0.266385
     3  Na   0.280548  -0.078420
     4  Na  -1.505136   0.184200
     5  Na  -0.391844   0.059438
     6  Na   0.535516   0.371992
     7  Na   0.037479   0.162097
 Sum of Mulliken charges =  -0.00000   1.00000

 Dipole moment (field-independent basis, Debye):
    X=              2.0089    Y=             -0.7531    Z=              0.0083  Tot=              2.1454
 Quadrupole moment (field-independent basis, Debye-Ang):
   XX=            -61.6715   YY=            -64.0420   ZZ=            -70.1673
   XY=             -3.9776   XZ=             -2.0620   YZ=              2.1002

 Normal termination of Gaussian 16 at Mon Nov 13 17:12:55 2023.
