 Gaussian 16, Revision B.01,
 Gaussian 16:  ES64L-G16RevB.01 20-Dec-2017

 -------------------------
 #P B3LYP/6-311+g(d) force
 -------------------------

 ------------------------------
 Gaussian input prepared by ASE
 ------------------------------
 Symbolic Z-matrix:
 Charge =  0 Multiplicity = 2

                         Standard orientation:
 ---------------------------------------------------------------------
 Center     Atomic      Atomic             Coordinates (Angstroms)
 Number     Number       Type             X           Y           Z
 ---------------------------------------------------------------------
      1         11           0       -0.528724    2.293388   -0.312222
      2         11           0       -0.410613   -2.138563    1.164367
      3         11           0       -4.533370   -0.235789    0.139959
      4         11           0       -1.721513   -0.395354   -0.892379
      5         11           0        2.257947    2.428947    0.784039
      6         11           0        1.222030   -0.141652   -0.370539
      7         11           0        3.714243   -1.810977   -0.513224
 ---------------------------------------------------------------------

 SCF Done:  E(UB3LYP) =  -1136.09835878     A.U. after   27 cycles

 The electronic state is 2-A.
 Alpha  occ. eigenvalues --  -38.44742 -38.44646 -38.44013 -38.43986 -38.43862
 Alpha  occ. eigenvalues --  -38.43661 -38.42870  -2.20632  -2.20527  -2.19865
 Alpha  occ. eigenvalues --   -2.19835  -2.19813  -2.19736  -2.19081  -1.14366
 Alpha  occ. eigenvalues --   -1.14285  -1.14258  -1.14225  -1.14169  -1.14164
 Alpha  occ. eigenvalues --   -1.13682  -1.13597  -1.13524  -1.13485  -1.13485
 Alpha  occ. eigenvalues --   -1.13475  -1.13459  -1.13444  -1.13417  -1.13386
 Alpha  occ. eigenvalues --   -1.13347  -1.13300  -1.12773  -1.12752  -1.12678
 Alpha  occ. eigenvalues --   -0.18826  -0.14046  -0.12541  -0.10444
 Alpha virt. eigenvalues --   -0.07072  -0.04921  -0.04265  -0.03484  -0.02929
 Alpha virt. eigenvalues --   -0.02364  -0.01640  -0.00961  -0.00655  -0.00357
 Alpha virt. eigenvalues --   -0.00310   0.00078   0.00574   0.00637   0.00658

  Beta  occ. eigenvalues --  -38.44713 -38.44642 -38.43925 -38.43911 -38.43860
  Beta  occ. eigenvalues --  -38.43642 -38.42842  -2.20580  -2.20520  -2.19834
  Beta  occ. eigenvalues --   -2.19716  -2.19699  -2.19673  -2.19042  -1.14313
  Beta  occ. eigenvalues --   -1.14255  -1.14253  -1.14199  -1.14165  -1.14153
  Beta  occ. eigenvalues --   -1.13644  -1.13515  -1.13491  -1.13460  -1.13444
  Beta  occ. eigenvalues --   -1.13367  -1.13365  -1.13350  -1.13336  -1.13332
  Beta  occ. eigenvalues --   -1.13305  -1.13260  -1.12740  -1.12664  -1.12660
  Beta  occ. eigenvalues --   -0.18314  -0.13257  -0.12282
  Beta virt. eigenvalues --   -0.06928  -0.06844  -0.04722  -0.04076  -0.02968
  Beta virt. eigenvalues --   -0.02597  -0.02175  -0.01279  -0.00738  -0.00362
  Beta virt. eigenvalues --   -0.00101   0.00002   0.00256   0.00683   0.00761

 Mulliken charges and spin densities:
               1          2
     1  Na   1.544241   0.114792
     2  Na   0.222761  -0.032549
     3  Na   0.002940   0.435822
     4  Na   1.785043   0.285218
     5  Na   0.439990   0.031531
     6  Na  -3.980994   0.016901
     7  Na  -0.013981   0.148285
 Sum of Mulliken charges =  -0.00000   1.00000

 Dipole moment (field-independent basis, Debye):
    X=              0.4908    Y=              0.0364    Z=              1.2504  Tot=              1.3438
 Quadrupole moment (field-independent basis, Debye-Ang):
   XX=            -71.4686   YY=            -66.0908   ZZ=            -65.0454
   XY=              2.0167   XZ=             -0.7177   YZ=             -0.3748

 Normal termination of Gaussian 16 at Mon Nov 13 18:50:39 2023.
