 Gaussian 16, Revision B.01,
 Gaussian 16:  ES64L-G16RevB.01 20-Dec-2017

 -------------------------
 #P B3LYP/6-311+g(d) force
 -------------------------

 ------------------------------
 Gaussian input prepared by ASE
 ------------------------------
 Symbolic Z-matrix:
 Charge =  0 Multiplicity = 2

                         Standard orientation:
 ---------------------------------------------------------------------
 Center     Atomic      Atomic             Coordinates (Angstroms)
 Number     Number       Type             X           Y           Z
 ---------------------------------------------------------------------
      1         11           0       -0.332150    0.050130   -1.624894
      2         11           0       -1.210145    2.532148   -0.169213
      3         11           0        4.513895   -0.207835   -0.225518
      4         11           0        1.711146    0.440272    0.553159
      5         11           0       -1.054542    0.192150    1.718565
      6         11           0       -0.638086   -2.347994    0.163876
      7         11           0       -2.990118   -0.658871   -0.415975
 ---------------------------------------------------------------------

 SCF Done:  E(UB3LYP) =  -1136.09896933     A.U. after   27 cycles

 The electronic state is 2-A.
 Alpha  occ. eigenvalues --  -38.45535 -38.44864 -38.44225 -38.43566 -38.43221
 Alpha  occ. eigenvalues --  -38.43013 -38.42547  -2.21314  -2.20877  -2.20346
 Alpha  occ. eigenvalues --   -2.19719  -2.19232  -2.19030  -2.18504  -1.15017
 Alpha  occ. eigenvalues --   -1.14958  -1.14951  -1.14628  -1.14569  -1.14472
 Alpha  occ. eigenvalues --   -1.14065  -1.13976  -1.13969  -1.13455  -1.13372
 Alpha  occ. eigenvalues --   -1.13324  -1.12946  -1.12900  -1.12799  -1.12732
 Alpha  occ. eigenvalues --   -1.12668  -1.12636  -1.12194  -1.12171  -1.12114
 Alpha  occ. eigenvalues --   -0.20196  -0.13571  -0.12016  -0.11375
 Alpha virt. eigenvalues --   -0.07641  -0.03754  -0.03661  -0.03286  -0.02743
 Alpha virt. eigenvalues --   -0.02537  -0.02461  -0.00918  -0.00599  -0.00138
 Alpha virt. eigenvalues --   -0.00013   0.00323   0.00381   0.00785   0.01085

  Beta  occ. eigenvalues --  -38.45547 -38.44840 -38.44153 -38.43475 -38.43198
  Beta  occ. eigenvalues --  -38.42996 -38.42537  -2.21336  -2.20838  -2.20217
  Beta  occ. eigenvalues --   -2.19554  -2.19195  -2.19006  -2.18492  -1.15033
  Beta  occ. eigenvalues --   -1.14972  -1.14964  -1.14606  -1.14495  -1.14447
  Beta  occ. eigenvalues --   -1.13969  -1.13882  -1.13876  -1.13338  -1.13263
  Beta  occ. eigenvalues --   -1.13203  -1.12929  -1.12825  -1.12781  -1.12719
  Beta  occ. eigenvalues --   -1.12632  -1.12593  -1.12190  -1.12141  -1.12094
  Beta  occ. eigenvalues --   -0.19345  -0.13456  -0.11684
  Beta virt. eigenvalues --   -0.07478  -0.07162  -0.03766  -0.03561  -0.02879
  Beta virt. eigenvalues --   -0.02556  -0.01739  -0.01362  -0.00871  -0.00324
  Beta virt. eigenvalues --   -0.00073   0.00015   0.00336   0.00570   0.00824

 Mulliken charges and spin densities:
               1          2
     1  Na   0.070726   0.777640
     2  Na  -0.393203  -0.122279
     3  Na   0.244427  -0.077100
     4  Na  -0.539834  -0.052800
     5  Na   0.277517   0.525008
     6  Na   0.049710  -0.060873
     7  Na   0.290658   0.010405
 Sum of Mulliken charges =  -0.00000   1.00000

 Dipole moment (field-independent basis, Debye):
    X=              0.4491    Y=             -0.1165    Z=             -0.1977  Tot=              0.5043
 Quadrupole moment (field-independent basis, Debye-Ang):
   XX=            -46.6731   YY=            -72.0489   ZZ=            -72.0085
   XY=             -2.3258   XZ=             -1.7736   YZ=             -0.1920

 Normal termination of Gaussian 16 at Mon Nov 13 17:30:34 2023.
