 Gaussian 16, Revision B.01,
 Gaussian 16:  ES64L-G16RevB.01 20-Dec-2017

 -------------------------
 #P B3LYP/6-311+g(d) force
 -------------------------

 ------------------------------
 Gaussian input prepared by ASE
 ------------------------------
 Symbolic Z-matrix:
 Charge =  0 Multiplicity = 2

                         Standard orientation:
 ---------------------------------------------------------------------
 Center     Atomic      Atomic             Coordinates (Angstroms)
 Number     Number       Type             X           Y           Z
 ---------------------------------------------------------------------
      1         11           0        1.178167   -1.332328   -0.436837
      2         11           0       -0.609680   -0.771003    1.905424
      3         11           0       -1.759749   -1.915535   -0.613487
      4         11           0       -3.315299    0.646127   -0.794868
      5         11           0       -1.038858    1.939367    0.675999
      6         11           0        1.623729    1.625629   -0.674987
      7         11           0        3.921690   -0.192257   -0.061244
 ---------------------------------------------------------------------

 SCF Done:  E(UB3LYP) =  -1136.10244614     A.U. after   25 cycles

 The electronic state is 2-A.
 Alpha  occ. eigenvalues --  -38.45248 -38.44557 -38.44145 -38.44140 -38.43519
 Alpha  occ. eigenvalues --  -38.43355 -38.42828  -2.21139  -2.20472  -2.20172
 Alpha  occ. eigenvalues --   -2.20105  -2.19588  -2.19349  -2.18820  -1.14841
 Alpha  occ. eigenvalues --   -1.14801  -1.14759  -1.14155  -1.14129  -1.14089
 Alpha  occ. eigenvalues --   -1.13895  -1.13844  -1.13813  -1.13804  -1.13766
 Alpha  occ. eigenvalues --   -1.13736  -1.13317  -1.13244  -1.13214  -1.12994
 Alpha  occ. eigenvalues --   -1.12986  -1.12962  -1.12496  -1.12477  -1.12454
 Alpha  occ. eigenvalues --   -0.19512  -0.14834  -0.11855  -0.11213
 Alpha virt. eigenvalues --   -0.06954  -0.04980  -0.03898  -0.03545  -0.03071
 Alpha virt. eigenvalues --   -0.02488  -0.01984  -0.00947  -0.00379   0.00003
 Alpha virt. eigenvalues --    0.00019   0.00220   0.00589   0.00828   0.00936

  Beta  occ. eigenvalues --  -38.45231 -38.44487 -38.44137 -38.44061 -38.43511
  Beta  occ. eigenvalues --  -38.43331 -38.42805  -2.21108  -2.20344  -2.20102
  Beta  occ. eigenvalues --   -2.20020  -2.19578  -2.19310  -2.18784  -1.14823
  Beta  occ. eigenvalues --   -1.14780  -1.14731  -1.14067  -1.14036  -1.14001
  Beta  occ. eigenvalues --   -1.13846  -1.13794  -1.13754  -1.13725  -1.13713
  Beta  occ. eigenvalues --   -1.13682  -1.13314  -1.13226  -1.13179  -1.12973
  Beta  occ. eigenvalues --   -1.12966  -1.12894  -1.12472  -1.12446  -1.12403
  Beta  occ. eigenvalues --   -0.18878  -0.14306  -0.11692
  Beta virt. eigenvalues --   -0.07374  -0.06673  -0.04821  -0.03521  -0.03218
  Beta virt. eigenvalues --   -0.02709  -0.01932  -0.01271  -0.00845  -0.00072
  Beta virt. eigenvalues --    0.00131   0.00133   0.00253   0.00701   0.00874

 Mulliken charges and spin densities:
               1          2
     1  Na  -1.110603  -0.060092
     2  Na  -0.167210   0.128117
     3  Na   0.247093   0.621935
     4  Na  -0.262240   0.032974
     5  Na   0.114752   0.368920
     6  Na  -0.306170   0.003589
     7  Na   1.484377  -0.095443
 Sum of Mulliken charges =  -0.00000   1.00000

 Dipole moment (field-independent basis, Debye):
    X=              1.1772    Y=             -0.1303    Z=              0.5718  Tot=              1.3152
 Quadrupole moment (field-independent basis, Debye-Ang):
   XX=            -52.9574   YY=            -76.1326   ZZ=            -68.3081
   XY=             -0.4609   XZ=              1.0208   YZ=             -0.8419

 Normal termination of Gaussian 16 at Mon Nov 13 15:54:37 2023.
