 Gaussian 16, Revision B.01,
 Gaussian 16:  ES64L-G16RevB.01 20-Dec-2017

 -------------------------
 #P B3LYP/6-311+g(d) force
 -------------------------

 ------------------------------
 Gaussian input prepared by ASE
 ------------------------------
 Symbolic Z-matrix:
 Charge =  0 Multiplicity = 2

                         Standard orientation:
 ---------------------------------------------------------------------
 Center     Atomic      Atomic             Coordinates (Angstroms)
 Number     Number       Type             X           Y           Z
 ---------------------------------------------------------------------
      1         11           0       -0.715579   -1.439286    1.346187
      2         11           0        0.754104   -1.540530   -1.269540
      3         11           0        2.254706   -1.005576    1.267089
      4         11           0        2.165960    1.080682   -0.885591
      5         11           0       -0.012933    2.953506   -0.011703
      6         11           0       -2.228478    1.089792    0.780491
      7         11           0       -2.217780   -1.138588   -1.226933
 ---------------------------------------------------------------------

 SCF Done:  E(UB3LYP) =  -1136.10869232     A.U. after   20 cycles

 The electronic state is 2-A.
 Alpha  occ. eigenvalues --  -38.44189 -38.44164 -38.43855 -38.43851 -38.43773
 Alpha  occ. eigenvalues --  -38.43751 -38.43531  -2.20179  -2.20153  -2.19861
 Alpha  occ. eigenvalues --   -2.19837  -2.19823  -2.19820  -2.19405  -1.13964
 Alpha  occ. eigenvalues --   -1.13938  -1.13898  -1.13862  -1.13804  -1.13776
 Alpha  occ. eigenvalues --   -1.13624  -1.13605  -1.13588  -1.13515  -1.13497
 Alpha  occ. eigenvalues --   -1.13455  -1.13449  -1.13443  -1.13429  -1.13397
 Alpha  occ. eigenvalues --   -1.13375  -1.13354  -1.13054  -1.13046  -1.13028
 Alpha  occ. eigenvalues --   -0.19789  -0.13824  -0.12855  -0.11676
 Alpha virt. eigenvalues --   -0.05343  -0.04877  -0.04771  -0.04088  -0.03002
 Alpha virt. eigenvalues --   -0.02766  -0.01000  -0.00474  -0.00231   0.00334
 Alpha virt. eigenvalues --    0.00390   0.00417   0.00669   0.00870   0.00937

  Beta  occ. eigenvalues --  -38.44148 -38.44124 -38.43836 -38.43835 -38.43721
  Beta  occ. eigenvalues --  -38.43702 -38.43534  -2.20106  -2.20084  -2.19795
  Beta  occ. eigenvalues --   -2.19793  -2.19769  -2.19746  -2.19413  -1.13916
  Beta  occ. eigenvalues --   -1.13895  -1.13829  -1.13801  -1.13749  -1.13720
  Beta  occ. eigenvalues --   -1.13572  -1.13561  -1.13538  -1.13497  -1.13481
  Beta  occ. eigenvalues --   -1.13414  -1.13411  -1.13373  -1.13358  -1.13334
  Beta  occ. eigenvalues --   -1.13324  -1.13299  -1.13050  -1.13049  -1.13029
  Beta  occ. eigenvalues --   -0.19064  -0.13644  -0.12626
  Beta virt. eigenvalues --   -0.07558  -0.05278  -0.04810  -0.04438  -0.03452
  Beta virt. eigenvalues --   -0.02411  -0.01703  -0.00924  -0.00421   0.00030
  Beta virt. eigenvalues --    0.00377   0.00396   0.00474   0.00764   0.00886

 Mulliken charges and spin densities:
               1          2
     1  Na  -0.585699   0.401995
     2  Na  -0.482041   0.437012
     3  Na   0.553014   0.052747
     4  Na   0.106713   0.040467
     5  Na  -0.269216  -0.011907
     6  Na   0.224471   0.033623
     7  Na   0.452759   0.046063
 Sum of Mulliken charges =  -0.00000   1.00000

 Dipole moment (field-independent basis, Debye):
    X=              0.0073    Y=             -0.1474    Z=             -0.0021  Tot=              0.1476
 Quadrupole moment (field-independent basis, Debye-Ang):
   XX=            -61.1813   YY=            -69.3733   ZZ=            -68.3882
   XY=              0.0710   XZ=              1.7814   YZ=              0.1810

 Normal termination of Gaussian 16 at Mon Nov 13 16:48:28 2023.
