 Gaussian 16, Revision B.01,
 Gaussian 16:  ES64L-G16RevB.01 20-Dec-2017

 -------------------------
 #P B3LYP/6-311+g(d) force
 -------------------------

 ------------------------------
 Gaussian input prepared by ASE
 ------------------------------
 Symbolic Z-matrix:
 Charge =  0 Multiplicity = 2

                         Standard orientation:
 ---------------------------------------------------------------------
 Center     Atomic      Atomic             Coordinates (Angstroms)
 Number     Number       Type             X           Y           Z
 ---------------------------------------------------------------------
      1         11           0       -0.370068    1.072940   -0.038100
      2         11           0       -0.509091   -1.484190    1.521371
      3         11           0       -3.190435    2.088630    0.117616
      4         11           0       -2.662648   -0.810007   -0.458173
      5         11           0        0.082286   -1.554690   -1.414244
      6         11           0        2.132841   -0.491381    0.500971
      7         11           0        4.517115    1.178698   -0.229441
 ---------------------------------------------------------------------

 SCF Done:  E(UB3LYP) =  -1136.09023599     A.U. after   25 cycles

 The electronic state is 2-A.
 Alpha  occ. eigenvalues --  -38.44728 -38.44642 -38.44558 -38.43703 -38.43585
 Alpha  occ. eigenvalues --  -38.43555 -38.43359  -2.20790  -2.20641  -2.20518
 Alpha  occ. eigenvalues --   -2.19801  -2.19694  -2.19455  -2.19439  -1.14590
 Alpha  occ. eigenvalues --   -1.14517  -1.14465  -1.14322  -1.14308  -1.14240
 Alpha  occ. eigenvalues --   -1.14226  -1.14164  -1.14155  -1.13563  -1.13467
 Alpha  occ. eigenvalues --   -1.13441  -1.13396  -1.13334  -1.13207  -1.13142
 Alpha  occ. eigenvalues --   -1.13119  -1.13118  -1.13069  -1.13064  -1.13015
 Alpha  occ. eigenvalues --   -0.20224  -0.14286  -0.12006  -0.10979
 Alpha virt. eigenvalues --   -0.07435  -0.05344  -0.03590  -0.03217  -0.02734
 Alpha virt. eigenvalues --   -0.02099  -0.02001  -0.01441  -0.00552  -0.00319
 Alpha virt. eigenvalues --   -0.00072   0.00305   0.00442   0.00704   0.00748

  Beta  occ. eigenvalues --  -38.44736 -38.44611 -38.44527 -38.43641 -38.43556
  Beta  occ. eigenvalues --  -38.43516 -38.43338  -2.20742  -2.20591  -2.20533
  Beta  occ. eigenvalues --   -2.19689  -2.19571  -2.19457  -2.19407  -1.14567
  Beta  occ. eigenvalues --   -1.14490  -1.14356  -1.14297  -1.14238  -1.14225
  Beta  occ. eigenvalues --   -1.14201  -1.14173  -1.14164  -1.13502  -1.13382
  Beta  occ. eigenvalues --   -1.13358  -1.13293  -1.13250  -1.13136  -1.13121
  Beta  occ. eigenvalues --   -1.13113  -1.13103  -1.13062  -1.13023  -1.12961
  Beta  occ. eigenvalues --   -0.19387  -0.14114  -0.11865
  Beta virt. eigenvalues --   -0.07243  -0.06700  -0.05197  -0.03365  -0.02731
  Beta virt. eigenvalues --   -0.02616  -0.01652  -0.01608  -0.00894  -0.00304
  Beta virt. eigenvalues --   -0.00126   0.00047   0.00326   0.00656   0.00743

 Mulliken charges and spin densities:
               1          2
     1  Na  -2.348173   0.464782
     2  Na   0.549272   0.193204
     3  Na   1.154956  -0.210073
     4  Na   1.171795   0.263935
     5  Na  -0.611022   0.213616
     6  Na   0.121225   0.134177
     7  Na  -0.038052  -0.059640
 Sum of Mulliken charges =  -0.00000   1.00000

 Dipole moment (field-independent basis, Debye):
    X=             -0.2305    Y=             -0.3217    Z=              0.1153  Tot=              0.4122
 Quadrupole moment (field-independent basis, Debye-Ang):
   XX=            -53.6516   YY=            -67.0679   ZZ=            -73.5127
   XY=              2.9413   XZ=             -2.2955   YZ=             -1.2533

 Normal termination of Gaussian 16 at Mon Nov 13 16:57:25 2023.
