 Gaussian 16, Revision B.01,
 Gaussian 16:  ES64L-G16RevB.01 20-Dec-2017

 -------------------------
 #P B3LYP/6-311+g(d) force
 -------------------------

 ------------------------------
 Gaussian input prepared by ASE
 ------------------------------
 Symbolic Z-matrix:
 Charge =  0 Multiplicity = 2

                         Standard orientation:
 ---------------------------------------------------------------------
 Center     Atomic      Atomic             Coordinates (Angstroms)
 Number     Number       Type             X           Y           Z
 ---------------------------------------------------------------------
      1         11           0        0.374691   -0.003489   -1.692460
      2         11           0        0.794472   -1.995153    0.517161
      3         11           0        2.937385   -0.003055   -0.145032
      4         11           0        0.802476    1.993130    0.515329
      5         11           0       -0.993806    0.002883    1.879680
      6         11           0       -1.954290    1.498529   -0.538682
      7         11           0       -1.960928   -1.492844   -0.535997
 ---------------------------------------------------------------------

 SCF Done:  E(UB3LYP) =  -1136.10459316     A.U. after   18 cycles

 The electronic state is 2-A.
 Alpha  occ. eigenvalues --  -38.44145 -38.43992 -38.43834 -38.43420 -38.43418
 Alpha  occ. eigenvalues --  -38.42976 -38.42976  -2.20256  -2.20042  -2.19970
 Alpha  occ. eigenvalues --   -2.19509  -2.19488  -2.19056  -2.19053  -1.13980
 Alpha  occ. eigenvalues --   -1.13915  -1.13899  -1.13847  -1.13780  -1.13699
 Alpha  occ. eigenvalues --   -1.13628  -1.13623  -1.13554  -1.13271  -1.13197
 Alpha  occ. eigenvalues --   -1.13182  -1.13137  -1.13119  -1.13020  -1.12737
 Alpha  occ. eigenvalues --   -1.12734  -1.12702  -1.12697  -1.12651  -1.12645
 Alpha  occ. eigenvalues --   -0.21025  -0.13830  -0.12521  -0.12283
 Alpha virt. eigenvalues --   -0.05359  -0.04279  -0.03833  -0.03785  -0.03178
 Alpha virt. eigenvalues --   -0.03054  -0.01154  -0.00457  -0.00191   0.00341
 Alpha virt. eigenvalues --    0.00662   0.00796   0.01016   0.01095   0.01157

  Beta  occ. eigenvalues --  -38.44057 -38.43991 -38.43755 -38.43400 -38.43397
  Beta  occ. eigenvalues --  -38.42958 -38.42957  -2.20098  -2.19972  -2.19896
  Beta  occ. eigenvalues --   -2.19478  -2.19458  -2.19028  -2.19025  -1.13888
  Beta  occ. eigenvalues --   -1.13800  -1.13789  -1.13781  -1.13693  -1.13644
  Beta  occ. eigenvalues --   -1.13606  -1.13585  -1.13493  -1.13248  -1.13178
  Beta  occ. eigenvalues --   -1.13166  -1.13068  -1.13054  -1.13000  -1.12723
  Beta  occ. eigenvalues --   -1.12721  -1.12642  -1.12636  -1.12632  -1.12627
  Beta  occ. eigenvalues --   -0.20193  -0.13559  -0.12213
  Beta virt. eigenvalues --   -0.08026  -0.05293  -0.04285  -0.03798  -0.02997
  Beta virt. eigenvalues --   -0.02305  -0.01896  -0.01081  -0.00427   0.00009
  Beta virt. eigenvalues --    0.00369   0.00679   0.00771   0.01072   0.01093

 Mulliken charges and spin densities:
               1          2
     1  Na  -0.469822   0.321635
     2  Na  -0.040136   0.152097
     3  Na   0.371516  -0.035749
     4  Na  -0.042056   0.151663
     5  Na  -0.305175   0.406069
     6  Na   0.243047   0.002979
     7  Na   0.242626   0.001305
 Sum of Mulliken charges =  -0.00000   1.00000

 Dipole moment (field-independent basis, Debye):
    X=              0.1422    Y=             -0.0004    Z=              0.1369  Tot=              0.1974
 Quadrupole moment (field-independent basis, Debye-Ang):
   XX=            -58.5010   YY=            -71.3062   ZZ=            -67.1628
   XY=             -0.0029   XZ=              1.3301   YZ=             -0.0071

 Normal termination of Gaussian 16 at Mon Nov 13 19:59:47 2023.
