 Gaussian 16, Revision B.01,
 Gaussian 16:  ES64L-G16RevB.01 20-Dec-2017

 -------------------------
 #P B3LYP/6-311+g(d) force
 -------------------------

 ------------------------------
 Gaussian input prepared by ASE
 ------------------------------
 Symbolic Z-matrix:
 Charge =  0 Multiplicity = 2

                         Standard orientation:
 ---------------------------------------------------------------------
 Center     Atomic      Atomic             Coordinates (Angstroms)
 Number     Number       Type             X           Y           Z
 ---------------------------------------------------------------------
      1         11           0       -1.165610   -1.203837    0.819085
      2         11           0        1.479736   -0.000144    1.571269
      3         11           0        1.361695   -2.193511   -0.463047
      4         11           0        3.062762    0.230363   -0.955659
      5         11           0        0.853038    2.181998   -0.396493
      6         11           0       -2.016919    1.629610    0.301305
      7         11           0       -3.574702   -0.644478   -0.876460
 ---------------------------------------------------------------------

 SCF Done:  E(UB3LYP) =  -1136.10399511     A.U. after   21 cycles

 The electronic state is 2-A.
 Alpha  occ. eigenvalues --  -38.44569 -38.44278 -38.44164 -38.43903 -38.43677
 Alpha  occ. eigenvalues --  -38.43281 -38.43109  -2.20477  -2.20290  -2.20269
 Alpha  occ. eigenvalues --   -2.19881  -2.19652  -2.19366  -2.19084  -1.14192
 Alpha  occ. eigenvalues --   -1.14129  -1.14117  -1.14090  -1.14015  -1.13944
 Alpha  occ. eigenvalues --   -1.13926  -1.13887  -1.13821  -1.13604  -1.13562
 Alpha  occ. eigenvalues --   -1.13508  -1.13377  -1.13294  -1.13272  -1.13039
 Alpha  occ. eigenvalues --   -1.12999  -1.12967  -1.12757  -1.12739  -1.12713
 Alpha  occ. eigenvalues --   -0.19667  -0.14954  -0.12194  -0.11076
 Alpha virt. eigenvalues --   -0.06261  -0.05300  -0.04298  -0.03789  -0.02542
 Alpha virt. eigenvalues --   -0.02004  -0.01909  -0.00643  -0.00394  -0.00205
 Alpha virt. eigenvalues --    0.00100   0.00294   0.00522   0.00828   0.00867

  Beta  occ. eigenvalues --  -38.44522 -38.44220 -38.44107 -38.43896 -38.43666
  Beta  occ. eigenvalues --  -38.43245 -38.43100  -2.20388  -2.20189  -2.20165
  Beta  occ. eigenvalues --   -2.19873  -2.19637  -2.19310  -2.19073  -1.14140
  Beta  occ. eigenvalues --   -1.14067  -1.14053  -1.14028  -1.13926  -1.13869
  Beta  occ. eigenvalues --   -1.13849  -1.13814  -1.13738  -1.13595  -1.13563
  Beta  occ. eigenvalues --   -1.13463  -1.13353  -1.13284  -1.13243  -1.12981
  Beta  occ. eigenvalues --   -1.12944  -1.12919  -1.12757  -1.12722  -1.12680
  Beta  occ. eigenvalues --   -0.18958  -0.14451  -0.11954
  Beta virt. eigenvalues --   -0.07269  -0.06034  -0.05111  -0.03761  -0.03667
  Beta virt. eigenvalues --   -0.01934  -0.01723  -0.01174  -0.00551  -0.00158
  Beta virt. eigenvalues --    0.00005   0.00166   0.00357   0.00664   0.00898

 Mulliken charges and spin densities:
               1          2
     1  Na  -0.346131   0.141297
     2  Na   0.139165   0.211333
     3  Na  -0.136417   0.109154
     4  Na   0.222865   0.336630
     5  Na  -0.248761  -0.008787
     6  Na  -0.103194   0.073695
     7  Na   0.472474   0.136677
 Sum of Mulliken charges =  -0.00000   1.00000

 Dipole moment (field-independent basis, Debye):
    X=             -0.2535    Y=             -0.1533    Z=             -0.2395  Tot=              0.3809
 Quadrupole moment (field-independent basis, Debye-Ang):
   XX=            -57.9276   YY=            -72.4501   ZZ=            -68.1193
   XY=             -0.1640   XZ=              2.2775   YZ=              1.9848

 Normal termination of Gaussian 16 at Mon Nov 13 16:28:40 2023.
