 Gaussian 16, Revision B.01,
 Gaussian 16:  ES64L-G16RevB.01 20-Dec-2017

 -------------------------
 #P B3LYP/6-311+g(d) force
 -------------------------

 ------------------------------
 Gaussian input prepared by ASE
 ------------------------------
 Symbolic Z-matrix:
 Charge =  0 Multiplicity = 2

                         Standard orientation:
 ---------------------------------------------------------------------
 Center     Atomic      Atomic             Coordinates (Angstroms)
 Number     Number       Type             X           Y           Z
 ---------------------------------------------------------------------
      1         11           0        0.365693    0.009927   -1.319065
      2         11           0        2.354779   -1.931358   -0.195032
      3         11           0        2.135575    2.115167   -0.121083
      4         11           0        0.942598   -0.008488    1.615769
      5         11           0       -1.951484    1.856115   -0.795000
      6         11           0       -2.060410   -0.036396    1.531425
      7         11           0       -1.786752   -2.004968   -0.717014
 ---------------------------------------------------------------------

 SCF Done:  E(UB3LYP) =  -1136.11113296     A.U. after   21 cycles

 The electronic state is 2-A.
 Alpha  occ. eigenvalues --  -38.43901 -38.43877 -38.43864 -38.43802 -38.43771
 Alpha  occ. eigenvalues --  -38.43655 -38.43004  -2.19913  -2.19778  -2.19774
 Alpha  occ. eigenvalues --   -2.19755  -2.19712  -2.19668  -2.19236  -1.13687
 Alpha  occ. eigenvalues --   -1.13653  -1.13620  -1.13606  -1.13531  -1.13516
 Alpha  occ. eigenvalues --   -1.13474  -1.13452  -1.13404  -1.13378  -1.13373
 Alpha  occ. eigenvalues --   -1.13352  -1.13344  -1.13330  -1.13294  -1.13283
 Alpha  occ. eigenvalues --   -1.13250  -1.13236  -1.12889  -1.12852  -1.12816
 Alpha  occ. eigenvalues --   -0.19781  -0.13668  -0.11907  -0.11647
 Alpha virt. eigenvalues --   -0.05435  -0.05107  -0.04022  -0.03425  -0.02749
 Alpha virt. eigenvalues --   -0.02706  -0.01413  -0.01074  -0.00222   0.00368
 Alpha virt. eigenvalues --    0.00464   0.00508   0.00686   0.00859   0.00980

  Beta  occ. eigenvalues --  -38.43874 -38.43846 -38.43845 -38.43786 -38.43769
  Beta  occ. eigenvalues --  -38.43586 -38.42944  -2.19815  -2.19772  -2.19743
  Beta  occ. eigenvalues --   -2.19686  -2.19670  -2.19631  -2.19130  -1.13622
  Beta  occ. eigenvalues --   -1.13593  -1.13572  -1.13551  -1.13498  -1.13477
  Beta  occ. eigenvalues --   -1.13447  -1.13416  -1.13358  -1.13354  -1.13339
  Beta  occ. eigenvalues --   -1.13329  -1.13318  -1.13291  -1.13268  -1.13254
  Beta  occ. eigenvalues --   -1.13210  -1.13184  -1.12810  -1.12774  -1.12740
  Beta  occ. eigenvalues --   -0.19039  -0.13487  -0.11636
  Beta virt. eigenvalues --   -0.07481  -0.05426  -0.05008  -0.03403  -0.03163
  Beta virt. eigenvalues --   -0.02035  -0.01685  -0.01337  -0.01010   0.00025
  Beta virt. eigenvalues --    0.00405   0.00468   0.00493   0.00716   0.00927

 Mulliken charges and spin densities:
               1          2
     1  Na  -1.418332   0.001050
     2  Na   0.433476   0.150172
     3  Na   0.232367   0.169520
     4  Na   0.391067   0.125734
     5  Na   0.115874   0.068899
     6  Na   0.268141   0.394343
     7  Na  -0.022593   0.090281
 Sum of Mulliken charges =  -0.00000   1.00000

 Dipole moment (field-independent basis, Debye):
    X=              0.0666    Y=             -0.0085    Z=             -0.0745  Tot=              0.1003
 Quadrupole moment (field-independent basis, Debye-Ang):
   XX=            -57.2328   YY=            -66.1002   ZZ=            -70.0286
   XY=             -0.1371   XZ=              0.1762   YZ=              0.1102

 Normal termination of Gaussian 16 at Mon Nov 13 18:30:16 2023.
