 Gaussian 16, Revision B.01,
 Gaussian 16:  ES64L-G16RevB.01 20-Dec-2017

 -------------------------
 #P B3LYP/6-311+g(d) force
 -------------------------

 ------------------------------
 Gaussian input prepared by ASE
 ------------------------------
 Symbolic Z-matrix:
 Charge =  0 Multiplicity = 2

                         Standard orientation:
 ---------------------------------------------------------------------
 Center     Atomic      Atomic             Coordinates (Angstroms)
 Number     Number       Type             X           Y           Z
 ---------------------------------------------------------------------
      1         11           0       -0.990723   -1.221587    1.783429
      2         11           0       -1.586317    1.636221    1.092392
      3         11           0       -3.436115    0.637845   -1.053231
      4         11           0       -1.425215   -1.590431   -1.163069
      5         11           0        0.748546    0.229761   -0.171648
      6         11           0        3.381238    1.633194   -0.471152
      7         11           0        3.308586   -1.325004   -0.016721
 ---------------------------------------------------------------------

 SCF Done:  E(UB3LYP) =  -1136.09442931     A.U. after   29 cycles

 The electronic state is 2-A.
 Alpha  occ. eigenvalues --  -38.45418 -38.44203 -38.44110 -38.43774 -38.43672
 Alpha  occ. eigenvalues --  -38.43650 -38.43399  -2.21296  -2.20096  -2.20030
 Alpha  occ. eigenvalues --   -2.19960  -2.19688  -2.19657  -2.19403  -1.15021
 Alpha  occ. eigenvalues --   -1.14941  -1.14918  -1.13892  -1.13750  -1.13741
 Alpha  occ. eigenvalues --   -1.13730  -1.13706  -1.13705  -1.13655  -1.13647
 Alpha  occ. eigenvalues --   -1.13604  -1.13424  -1.13386  -1.13312  -1.13284
 Alpha  occ. eigenvalues --   -1.13240  -1.13182  -1.13064  -1.13006  -1.13002
 Alpha  occ. eigenvalues --   -0.19335  -0.15035  -0.11687  -0.10771
 Alpha virt. eigenvalues --   -0.06705  -0.05555  -0.03967  -0.03089  -0.02903
 Alpha virt. eigenvalues --   -0.02325  -0.02063  -0.01059  -0.00745  -0.00129
 Alpha virt. eigenvalues --    0.00119   0.00276   0.00543   0.00728   0.00734

  Beta  occ. eigenvalues --  -38.45413 -38.44203 -38.44056 -38.43754 -38.43619
  Beta  occ. eigenvalues --  -38.43595 -38.43349  -2.21286  -2.20096  -2.19934
  Beta  occ. eigenvalues --   -2.19931  -2.19595  -2.19558  -2.19316  -1.15017
  Beta  occ. eigenvalues --   -1.14933  -1.14910  -1.13886  -1.13741  -1.13717
  Beta  occ. eigenvalues --   -1.13681  -1.13650  -1.13628  -1.13616  -1.13589
  Beta  occ. eigenvalues --   -1.13586  -1.13368  -1.13291  -1.13254  -1.13228
  Beta  occ. eigenvalues --   -1.13168  -1.13096  -1.13006  -1.12953  -1.12910
  Beta  occ. eigenvalues --   -0.18601  -0.14741  -0.10689
  Beta virt. eigenvalues --   -0.07411  -0.06459  -0.05469  -0.03428  -0.02958
  Beta virt. eigenvalues --   -0.02542  -0.01791  -0.01412  -0.00928  -0.00373
  Beta virt. eigenvalues --   -0.00026   0.00201   0.00287   0.00703   0.00755

 Mulliken charges and spin densities:
               1          2
     1  Na   0.387230  -0.073711
     2  Na   1.183168   0.249791
     3  Na  -0.234830  -0.045675
     4  Na   0.960935   0.427450
     5  Na  -2.736252   0.420950
     6  Na  -0.118884  -0.026790
     7  Na   0.558633   0.047985
 Sum of Mulliken charges =  -0.00000   1.00000

 Dipole moment (field-independent basis, Debye):
    X=              1.4251    Y=             -0.8114    Z=              0.3581  Tot=              1.6786
 Quadrupole moment (field-independent basis, Debye-Ang):
   XX=            -53.9872   YY=            -72.8270   ZZ=            -68.4576
   XY=             -0.3768   XZ=             -0.8108   YZ=             -0.6960

 Normal termination of Gaussian 16 at Mon Nov 13 17:41:37 2023.
