 Gaussian 16, Revision B.01,
 Gaussian 16:  ES64L-G16RevB.01 20-Dec-2017

 -------------------------
 #P B3LYP/6-311+g(d) force
 -------------------------

 ------------------------------
 Gaussian input prepared by ASE
 ------------------------------
 Symbolic Z-matrix:
 Charge =  0 Multiplicity = 2

                         Standard orientation:
 ---------------------------------------------------------------------
 Center     Atomic      Atomic             Coordinates (Angstroms)
 Number     Number       Type             X           Y           Z
 ---------------------------------------------------------------------
      1         11           0        0.371518    0.488561   -0.947803
      2         11           0       -1.712291    1.995971   -0.085221
      3         11           0        2.888921    1.474723    0.073810
      4         11           0        2.400552   -1.372025   -0.069795
      5         11           0       -0.433524   -1.974631   -0.172502
      6         11           0       -2.658338   -0.493190   -0.619060
      7         11           0       -0.856838   -0.119410    1.820571
 ---------------------------------------------------------------------

 SCF Done:  E(UB3LYP) =  -1136.07138106     A.U. after   22 cycles

 The electronic state is 2-A.
 Alpha  occ. eigenvalues --  -38.44911 -38.44709 -38.44316 -38.44010 -38.43852
 Alpha  occ. eigenvalues --  -38.43703 -38.43256  -2.21055  -2.20621  -2.20345
 Alpha  occ. eigenvalues --   -2.20119  -2.20053  -2.19992  -2.19472  -1.14859
 Alpha  occ. eigenvalues --   -1.14851  -1.14638  -1.14466  -1.14312  -1.14232
 Alpha  occ. eigenvalues --   -1.14226  -1.14073  -1.13950  -1.13939  -1.13913
 Alpha  occ. eigenvalues --   -1.13786  -1.13753  -1.13685  -1.13626  -1.13553
 Alpha  occ. eigenvalues --   -1.13519  -1.13483  -1.13076  -1.13053  -1.13000
 Alpha  occ. eigenvalues --   -0.20962  -0.14830  -0.12198  -0.11197
 Alpha virt. eigenvalues --   -0.06376  -0.05276  -0.03683  -0.03575  -0.02269
 Alpha virt. eigenvalues --   -0.02099  -0.01880  -0.00845  -0.00058   0.00091
 Alpha virt. eigenvalues --    0.00295   0.00439   0.00788   0.00948   0.01025

  Beta  occ. eigenvalues --  -38.44878 -38.44712 -38.44314 -38.43993 -38.43756
  Beta  occ. eigenvalues --  -38.43656 -38.43230  -2.21001  -2.20629  -2.20343
  Beta  occ. eigenvalues --   -2.20078  -2.19994  -2.19816  -2.19436  -1.14831
  Beta  occ. eigenvalues --   -1.14818  -1.14544  -1.14466  -1.14316  -1.14221
  Beta  occ. eigenvalues --   -1.14214  -1.14043  -1.13949  -1.13911  -1.13878
  Beta  occ. eigenvalues --   -1.13710  -1.13665  -1.13644  -1.13526  -1.13451
  Beta  occ. eigenvalues --   -1.13428  -1.13413  -1.13056  -1.13030  -1.12896
  Beta  occ. eigenvalues --   -0.20113  -0.14570  -0.11898
  Beta virt. eigenvalues --   -0.06997  -0.06239  -0.05244  -0.03563  -0.02906
  Beta virt. eigenvalues --   -0.01911  -0.01508  -0.00953  -0.00772   0.00044
  Beta virt. eigenvalues --    0.00148   0.00374   0.00440   0.00838   0.00953

 Mulliken charges and spin densities:
               1          2
     1  Na  -0.572623   0.113533
     2  Na   0.258915   0.147842
     3  Na   0.064781   0.027683
     4  Na   0.056547  -0.030815
     5  Na   0.551194   0.159939
     6  Na   0.583611   0.125381
     7  Na  -0.942426   0.456436
 Sum of Mulliken charges =  -0.00000   1.00000

 Dipole moment (field-independent basis, Debye):
    X=              0.4925    Y=              0.2624    Z=              0.5367  Tot=              0.7743
 Quadrupole moment (field-independent basis, Debye-Ang):
   XX=            -51.1334   YY=            -69.8474   ZZ=            -73.4454
   XY=              0.3633   XZ=              2.0475   YZ=              1.0676

 Normal termination of Gaussian 16 at Mon Nov 13 17:59:25 2023.
