 Gaussian 16, Revision B.01,
 Gaussian 16:  ES64L-G16RevB.01 20-Dec-2017

 -------------------------
 #P B3LYP/6-311+g(d) force
 -------------------------

 -----
 DPGEN
 -----
 Symbolic Z-matrix:
 Charge =  0 Multiplicity = 2

                         Standard orientation:
 ---------------------------------------------------------------------
 Center     Atomic      Atomic             Coordinates (Angstroms)
 Number     Number       Type             X           Y           Z
 ---------------------------------------------------------------------
      1         11           0       -9.391020   -0.966354   -2.064138
      2         11           0       18.834537    0.798733   -1.306031
      3         11           0       20.025337   -0.922115    1.241794
      4         11           0       -8.519165   -4.224704    2.732806
      5         11           0       -7.430307   -4.981969    0.081833
      6         11           0       -6.418501   -8.130473   -0.933536
      7         11           0       -7.100882   18.426883    0.247272
 ---------------------------------------------------------------------

 SCF Done:  E(UB3LYP) =  -1136.06075439     A.U. after   20 cycles

 The electronic state is 2-A.
 Alpha  occ. eigenvalues --  -38.46667 -38.45770 -38.45770 -38.44398 -38.44397
 Alpha  occ. eigenvalues --  -38.44197 -38.43994  -2.22430  -2.21554  -2.21454
 Alpha  occ. eigenvalues --   -2.20153  -2.20147  -2.19943  -2.19830  -1.16140
 Alpha  occ. eigenvalues --   -1.16081  -1.16052  -1.15167  -1.15167  -1.15167
 Alpha  occ. eigenvalues --   -1.15133  -1.15129  -1.15099  -1.13841  -1.13825
 Alpha  occ. eigenvalues --   -1.13825  -1.13811  -1.13811  -1.13732  -1.13617
 Alpha  occ. eigenvalues --   -1.13611  -1.13593  -1.13553  -1.13503  -1.13415
 Alpha  occ. eigenvalues --   -0.14539  -0.12811  -0.12797  -0.10818
 Alpha virt. eigenvalues --   -0.08734  -0.05877  -0.04786  -0.03155  -0.02925
 Alpha virt. eigenvalues --   -0.02259  -0.02258  -0.02096  -0.02096  -0.02095
 Alpha virt. eigenvalues --   -0.01822  -0.01303  -0.01189  -0.01118  -0.00737

  Beta  occ. eigenvalues --  -38.46667 -38.45770 -38.45584 -38.44398 -38.44397
  Beta  occ. eigenvalues --  -38.44197 -38.43994  -2.22430  -2.21454  -2.21208
  Beta  occ. eigenvalues --   -2.20153  -2.20147  -2.19943  -2.19830  -1.16140
  Beta  occ. eigenvalues --   -1.16081  -1.16052  -1.15133  -1.15129  -1.15099
  Beta  occ. eigenvalues --   -1.14933  -1.14933  -1.14933  -1.13841  -1.13825
  Beta  occ. eigenvalues --   -1.13825  -1.13811  -1.13811  -1.13732  -1.13617
  Beta  occ. eigenvalues --   -1.13611  -1.13593  -1.13553  -1.13503  -1.13415
  Beta  occ. eigenvalues --   -0.14539  -0.12811  -0.10818
  Beta virt. eigenvalues --   -0.08734  -0.06222  -0.05877  -0.04786  -0.03155
  Beta virt. eigenvalues --   -0.02925  -0.02259  -0.02258  -0.01822  -0.01303
  Beta virt. eigenvalues --   -0.01189  -0.01120  -0.00737  -0.00505  -0.00099

 Mulliken charges and spin densities:
               1          2
     1  Na   0.000576  -0.000007
     2  Na   0.000186  -0.000000
     3  Na  -0.000186   0.000000
     4  Na   0.147477  -0.000005
     5  Na  -0.355164   0.000004
     6  Na   0.207114   0.000006
     7  Na  -0.000002   1.000002
 Sum of Mulliken charges =  -0.00000   1.00000

 Dipole moment (field-independent basis, Debye):
    X=             -0.3957    Y=              0.0718    Z=              1.2859  Tot=              1.3473
 Quadrupole moment (field-independent basis, Debye-Ang):
   XX=            -70.7503   YY=            -74.0705   ZZ=            -57.4683
   XY=             -1.5106   XZ=             -9.3147   YZ=            -11.0010

 Normal termination of Gaussian 16 at Tue Nov 21 11:49:48 2023.
