 Gaussian 16, Revision B.01,
 Gaussian 16:  ES64L-G16RevB.01 20-Dec-2017

 -------------------------
 #P B3LYP/6-311+g(d) force
 -------------------------

 -----
 DPGEN
 -----
 Symbolic Z-matrix:
 Charge =  0 Multiplicity = 2

                         Standard orientation:
 ---------------------------------------------------------------------
 Center     Atomic      Atomic             Coordinates (Angstroms)
 Number     Number       Type             X           Y           Z
 ---------------------------------------------------------------------
      1         11           0       21.299723  -24.780153    6.348398
      2         11           0      -70.332319   10.946160    4.645738
      3         11           0       21.292814  -23.598120    2.320229
      4         11           0       53.222577   68.981206    0.359165
      5         11           0       19.842362  -23.297992   -2.892084
      6         11           0       22.899022  -21.639333   -6.092443
      7         11           0      -68.224179   13.388233   -4.689002
 ---------------------------------------------------------------------

 SCF Done:  E(UB3LYP) =  -1136.00679328     A.U. after   15 cycles

 The electronic state is 2-A.
 Alpha  occ. eigenvalues --  -38.46585 -38.46585 -38.46355 -38.46164 -38.45774
 Alpha  occ. eigenvalues --  -38.45525 -38.45489  -2.22265  -2.22264  -2.22027
 Alpha  occ. eigenvalues --   -2.21837  -2.21558  -2.21214  -2.21170  -1.15934
 Alpha  occ. eigenvalues --   -1.15934  -1.15934  -1.15934  -1.15933  -1.15933
 Alpha  occ. eigenvalues --   -1.15707  -1.15707  -1.15656  -1.15519  -1.15514
 Alpha  occ. eigenvalues --   -1.15466  -1.15171  -1.15171  -1.15171  -1.14894
 Alpha  occ. eigenvalues --   -1.14894  -1.14857  -1.14857  -1.14834  -1.14784
 Alpha  occ. eigenvalues --   -0.12801  -0.12581  -0.11837  -0.10876
 Alpha virt. eigenvalues --   -0.09749  -0.08267  -0.06647  -0.02519  -0.02498
 Alpha virt. eigenvalues --   -0.02484  -0.02153  -0.02100  -0.02100  -0.02100
 Alpha virt. eigenvalues --   -0.01931  -0.01931  -0.01908  -0.01786  -0.01711

  Beta  occ. eigenvalues --  -38.46585 -38.46585 -38.46355 -38.46164 -38.45588
  Beta  occ. eigenvalues --  -38.45525 -38.45489  -2.22265  -2.22264  -2.22027
  Beta  occ. eigenvalues --   -2.21837  -2.21214  -2.21212  -2.21170  -1.15934
  Beta  occ. eigenvalues --   -1.15934  -1.15934  -1.15934  -1.15933  -1.15933
  Beta  occ. eigenvalues --   -1.15707  -1.15707  -1.15656  -1.15519  -1.15514
  Beta  occ. eigenvalues --   -1.15466  -1.14937  -1.14937  -1.14937  -1.14894
  Beta  occ. eigenvalues --   -1.14894  -1.14857  -1.14857  -1.14834  -1.14784
  Beta  occ. eigenvalues --   -0.12581  -0.11837  -0.10876
  Beta virt. eigenvalues --   -0.09749  -0.08267  -0.06647  -0.06221  -0.02519
  Beta virt. eigenvalues --   -0.02498  -0.02484  -0.02153  -0.01931  -0.01931
  Beta virt. eigenvalues --   -0.01908  -0.01786  -0.01711  -0.01711  -0.01415

 Mulliken charges and spin densities:
               1          2
     1  Na   0.107253   0.000000
     2  Na  -0.000000  -0.000000
     3  Na  -0.077071  -0.000000
     4  Na  -0.000000   1.000000
     5  Na  -0.034999   0.000000
     6  Na   0.004817   0.000000
     7  Na   0.000000   0.000000
 Sum of Mulliken charges =  -0.00000   1.00000

 Dipole moment (field-independent basis, Debye):
    X=              0.2185    Y=              0.1195    Z=             -0.4077  Tot=              0.4778
 Quadrupole moment (field-independent basis, Debye-Ang):
   XX=            -66.9421   YY=            -85.1140   ZZ=            -55.4551
   XY=              0.9900   XZ=            -15.1624   YZ=              0.9855

 Normal termination of Gaussian 16 at Thu Nov 23 12:40:24 2023.
