 Gaussian 16, Revision B.01,
 Gaussian 16:  ES64L-G16RevB.01 20-Dec-2017

 -------------------------
 #P B3LYP/6-311+g(d) force
 -------------------------

 -----
 DPGEN
 -----
 Symbolic Z-matrix:
 Charge =  0 Multiplicity = 2

                         Standard orientation:
 ---------------------------------------------------------------------
 Center     Atomic      Atomic             Coordinates (Angstroms)
 Number     Number       Type             X           Y           Z
 ---------------------------------------------------------------------
      1         11           0       11.632925   -2.428552   -0.696073
      2         11           0        9.035753   -0.509634    0.313624
      3         11           0       11.137292    1.944950    0.985471
      4         11           0       13.523290    2.229537   -1.194884
      5         11           0       15.426634   -0.348397   -0.566548
      6         11           0       18.245217   -0.860977    1.138372
      7         11           0      -79.001111   -0.026927    0.020039
 ---------------------------------------------------------------------

 SCF Done:  E(UB3LYP) =  -1136.08989460     A.U. after   15 cycles

 The electronic state is 2-A.
 Alpha  occ. eigenvalues --  -38.45774 -38.45259 -38.45178 -38.44573 -38.44268
 Alpha  occ. eigenvalues --  -38.43838 -38.43046  -2.21558  -2.21000  -2.20924
 Alpha  occ. eigenvalues --   -2.20382  -2.20073  -2.19644  -2.18875  -1.15171
 Alpha  occ. eigenvalues --   -1.15171  -1.15171  -1.14680  -1.14667  -1.14631
 Alpha  occ. eigenvalues --   -1.14589  -1.14587  -1.14568  -1.14063  -1.14040
 Alpha  occ. eigenvalues --   -1.14036  -1.13742  -1.13733  -1.13705  -1.13322
 Alpha  occ. eigenvalues --   -1.13322  -1.13286  -1.12548  -1.12530  -1.12523
 Alpha  occ. eigenvalues --   -0.15826  -0.13137  -0.12802  -0.11127
 Alpha virt. eigenvalues --   -0.08258  -0.05011  -0.04631  -0.03449  -0.02961
 Alpha virt. eigenvalues --   -0.02100  -0.02100  -0.02100  -0.02063  -0.01865
 Alpha virt. eigenvalues --   -0.01410  -0.00820  -0.00291  -0.00043   0.00117

  Beta  occ. eigenvalues --  -38.45588 -38.45259 -38.45178 -38.44573 -38.44268
  Beta  occ. eigenvalues --  -38.43838 -38.43046  -2.21213  -2.21000  -2.20924
  Beta  occ. eigenvalues --   -2.20382  -2.20073  -2.19644  -2.18875  -1.14937
  Beta  occ. eigenvalues --   -1.14937  -1.14937  -1.14680  -1.14667  -1.14631
  Beta  occ. eigenvalues --   -1.14589  -1.14587  -1.14568  -1.14063  -1.14040
  Beta  occ. eigenvalues --   -1.14036  -1.13742  -1.13733  -1.13705  -1.13322
  Beta  occ. eigenvalues --   -1.13322  -1.13286  -1.12548  -1.12530  -1.12523
  Beta  occ. eigenvalues --   -0.15826  -0.13137  -0.11127
  Beta virt. eigenvalues --   -0.08258  -0.06222  -0.05011  -0.04631  -0.03449
  Beta virt. eigenvalues --   -0.02961  -0.02063  -0.01865  -0.01410  -0.00820
  Beta virt. eigenvalues --   -0.00291  -0.00087  -0.00087  -0.00087  -0.00043

 Mulliken charges and spin densities:
               1          2
     1  Na   0.145407   0.000000
     2  Na   0.032617  -0.000000
     3  Na   0.168413   0.000000
     4  Na   0.131549  -0.000000
     5  Na  -0.887378   0.000000
     6  Na   0.409392  -0.000000
     7  Na  -0.000000   1.000000
 Sum of Mulliken charges =  -0.00000   1.00000

 Dipole moment (field-independent basis, Debye):
    X=             -0.0157    Y=             -0.1819    Z=              0.6172  Tot=              0.6436
 Quadrupole moment (field-independent basis, Debye-Ang):
   XX=            -57.9516   YY=            -76.6343   ZZ=            -68.5243
   XY=             -7.6210   XZ=              9.7641   YZ=              2.4259

 Normal termination of Gaussian 16 at Thu Nov 23 12:41:20 2023.
