 Gaussian 16, Revision B.01,
 Gaussian 16:  ES64L-G16RevB.01 20-Dec-2017

 -------------------------
 #P B3LYP/6-311+g(d) force
 -------------------------

 ------------------------------
 Gaussian input prepared by ASE
 ------------------------------
 Symbolic Z-matrix:
 Charge =  0 Multiplicity = 2

                         Standard orientation:
 ---------------------------------------------------------------------
 Center     Atomic      Atomic             Coordinates (Angstroms)
 Number     Number       Type             X           Y           Z
 ---------------------------------------------------------------------
      1         11           0        0.150502   -0.534554   -1.225175
      2         11           0       -1.531893    1.271913    0.753776
      3         11           0        2.906911   -0.968556   -0.516960
      4         11           0        1.315168    0.414297    1.439529
      5         11           0       -2.671074   -0.850803   -0.805041
      6         11           0       -0.674201   -1.433719    1.170906
      7         11           0        0.504587    2.101421   -0.817036
 ---------------------------------------------------------------------

 SCF Done:  E(UB3LYP) =  -1136.06988811     A.U. after   20 cycles

 The electronic state is 2-A.
 Alpha  occ. eigenvalues --  -38.44354 -38.44278 -38.44030 -38.43948 -38.43913
 Alpha  occ. eigenvalues --  -38.43422 -38.43320  -2.20383  -2.20321  -2.20295
 Alpha  occ. eigenvalues --   -2.20249  -2.20151  -2.19668  -2.19430  -1.14501
 Alpha  occ. eigenvalues --   -1.14348  -1.14205  -1.14172  -1.14080  -1.14038
 Alpha  occ. eigenvalues --   -1.13991  -1.13949  -1.13871  -1.13817  -1.13802
 Alpha  occ. eigenvalues --   -1.13740  -1.13695  -1.13669  -1.13600  -1.13525
 Alpha  occ. eigenvalues --   -1.13297  -1.13238  -1.13053  -1.12992  -1.12890
 Alpha  occ. eigenvalues --   -0.21466  -0.14219  -0.12462  -0.12045
 Alpha virt. eigenvalues --   -0.05730  -0.04233  -0.03859  -0.03478  -0.02725
 Alpha virt. eigenvalues --   -0.02679  -0.01588  -0.00486  -0.00247   0.00319
 Alpha virt. eigenvalues --    0.00655   0.00770   0.01023   0.01054   0.01136

  Beta  occ. eigenvalues --  -38.44344 -38.44258 -38.43975 -38.43883 -38.43849
  Beta  occ. eigenvalues --  -38.43394 -38.43297  -2.20307  -2.20289  -2.20246
  Beta  occ. eigenvalues --   -2.20153  -2.20043  -2.19624  -2.19392  -1.14436
  Beta  occ. eigenvalues --   -1.14284  -1.14135  -1.14106  -1.14041  -1.13985
  Beta  occ. eigenvalues --   -1.13950  -1.13908  -1.13856  -1.13752  -1.13749
  Beta  occ. eigenvalues --   -1.13679  -1.13610  -1.13590  -1.13520  -1.13491
  Beta  occ. eigenvalues --   -1.13252  -1.13169  -1.13016  -1.12945  -1.12861
  Beta  occ. eigenvalues --   -0.20591  -0.13970  -0.11829
  Beta virt. eigenvalues --   -0.07986  -0.05673  -0.04043  -0.03361  -0.03162
  Beta virt. eigenvalues --   -0.02032  -0.01597  -0.01510  -0.00391  -0.00054
  Beta virt. eigenvalues --    0.00340   0.00688   0.00849   0.01040   0.01074

 Mulliken charges and spin densities:
               1          2
     1  Na  -0.792363   0.288211
     2  Na  -0.127843   0.273833
     3  Na  -0.326043   0.026253
     4  Na   0.090644  -0.032968
     5  Na   1.056439  -0.107463
     6  Na  -0.023239   0.408811
     7  Na   0.122405   0.143322
 Sum of Mulliken charges =  -0.00000   1.00000

 Dipole moment (field-independent basis, Debye):
    X=              0.2440    Y=             -0.0468    Z=             -0.2221  Tot=              0.3332
 Quadrupole moment (field-independent basis, Debye-Ang):
   XX=            -54.3879   YY=            -73.9576   ZZ=            -66.6888
   XY=             -0.3201   XZ=              0.1666   YZ=              0.1555

 Normal termination of Gaussian 16 at Mon Nov 13 19:14:49 2023.
