 Gaussian 16, Revision B.01,
 Gaussian 16:  ES64L-G16RevB.01 20-Dec-2017

 -------------------------
 #P B3LYP/6-311+g(d) force
 -------------------------

 ------------------------------
 Gaussian input prepared by ASE
 ------------------------------
 Symbolic Z-matrix:
 Charge =  0 Multiplicity = 2

                         Standard orientation:
 ---------------------------------------------------------------------
 Center     Atomic      Atomic             Coordinates (Angstroms)
 Number     Number       Type             X           Y           Z
 ---------------------------------------------------------------------
      1         11           0       -1.548968    1.509256   -0.867093
      2         11           0        2.878273   -0.216026   -1.387410
      3         11           0        1.311109    1.996358   -0.096301
      4         11           0        1.337337    0.236780    2.340685
      5         11           0        1.184166   -1.995316    0.337890
      6         11           0       -1.500003   -1.488647   -0.903907
      7         11           0       -3.661914   -0.042405    0.576136
 ---------------------------------------------------------------------

 SCF Done:  E(UB3LYP) =  -1136.10323468     A.U. after   23 cycles

 The electronic state is 2-A.
 Alpha  occ. eigenvalues --  -38.45698 -38.45119 -38.44509 -38.43986 -38.43880
 Alpha  occ. eigenvalues --  -38.42805 -38.42755  -2.21573  -2.21023  -2.20439
 Alpha  occ. eigenvalues --   -2.19952  -2.19845  -2.18790  -2.18739  -1.15277
 Alpha  occ. eigenvalues --   -1.15232  -1.15198  -1.14697  -1.14686  -1.14638
 Alpha  occ. eigenvalues --   -1.14112  -1.14089  -1.14036  -1.13729  -1.13630
 Alpha  occ. eigenvalues --   -1.13594  -1.13528  -1.13483  -1.13440  -1.12460
 Alpha  occ. eigenvalues --   -1.12457  -1.12433  -1.12411  -1.12405  -1.12382
 Alpha  occ. eigenvalues --   -0.19120  -0.14664  -0.11579  -0.11436
 Alpha virt. eigenvalues --   -0.06870  -0.04876  -0.04298  -0.03388  -0.03050
 Alpha virt. eigenvalues --   -0.02729  -0.02234  -0.00575  -0.00464   0.00168
 Alpha virt. eigenvalues --    0.00172   0.00238   0.00529   0.00809   0.00869

  Beta  occ. eigenvalues --  -38.45700 -38.45060 -38.44400 -38.43980 -38.43875
  Beta  occ. eigenvalues --  -38.42789 -38.42740  -2.21577  -2.20915  -2.20239
  Beta  occ. eigenvalues --   -2.19943  -2.19837  -2.18766  -2.18718  -1.15280
  Beta  occ. eigenvalues --   -1.15238  -1.15197  -1.14630  -1.14605  -1.14555
  Beta  occ. eigenvalues --   -1.13982  -1.13941  -1.13900  -1.13723  -1.13628
  Beta  occ. eigenvalues --   -1.13575  -1.13525  -1.13465  -1.13435  -1.12450
  Beta  occ. eigenvalues --   -1.12428  -1.12401  -1.12381  -1.12378  -1.12334
  Beta  occ. eigenvalues --   -0.18469  -0.14406  -0.11352
  Beta virt. eigenvalues --   -0.07467  -0.06622  -0.04806  -0.03811  -0.03370
  Beta virt. eigenvalues --   -0.02303  -0.01940  -0.01728  -0.00541  -0.00149
  Beta virt. eigenvalues --    0.00197   0.00247   0.00311   0.00631   0.00842

 Mulliken charges and spin densities:
               1          2
     1  Na  -0.409864  -0.057408
     2  Na   0.268029   0.174440
     3  Na  -0.122977   0.276595
     4  Na  -0.069284   0.384586
     5  Na  -0.150051   0.172425
     6  Na  -0.228920   0.047594
     7  Na   0.713068   0.001767
 Sum of Mulliken charges =  -0.00000   1.00000

 Dipole moment (field-independent basis, Debye):
    X=             -1.1761    Y=             -0.0388    Z=              0.4016  Tot=              1.2434
 Quadrupole moment (field-independent basis, Debye-Ang):
   XX=            -49.9148   YY=            -79.0919   ZZ=            -67.2649
   XY=             -0.0428   XZ=             -4.9021   YZ=              0.4916

 Normal termination of Gaussian 16 at Mon Nov 13 15:50:26 2023.
