 Gaussian 16, Revision B.01,
 Gaussian 16:  ES64L-G16RevB.01 20-Dec-2017

 -------------------------
 #P B3LYP/6-311+g(d) force
 -------------------------

 ------------------------------
 Gaussian input prepared by ASE
 ------------------------------
 Symbolic Z-matrix:
 Charge =  0 Multiplicity = 2

                         Standard orientation:
 ---------------------------------------------------------------------
 Center     Atomic      Atomic             Coordinates (Angstroms)
 Number     Number       Type             X           Y           Z
 ---------------------------------------------------------------------
      1         11           0       -0.001600   -0.000609   -1.399003
      2         11           0       -0.825132   -1.520880    1.048684
      3         11           0        1.510878   -2.460193   -0.582892
      4         11           0        1.733792    0.046371    1.048753
      5         11           0        1.377224    2.536893   -0.583812
      6         11           0       -0.904715    1.475480    1.048969
      7         11           0       -2.890449   -0.077062   -0.580699
 ---------------------------------------------------------------------

 SCF Done:  E(UB3LYP) =  -1136.10274085     A.U. after   20 cycles

 The electronic state is 2-A.
 Alpha  occ. eigenvalues --  -38.43509 -38.43504 -38.43504 -38.43213 -38.43209
 Alpha  occ. eigenvalues --  -38.43208 -38.43208  -2.19519  -2.19493  -2.19490
 Alpha  occ. eigenvalues --   -2.19479  -2.19401  -2.19375  -2.19375  -1.13511
 Alpha  occ. eigenvalues --   -1.13403  -1.13403  -1.13256  -1.13241  -1.13241
 Alpha  occ. eigenvalues --   -1.13161  -1.13151  -1.13151  -1.13135  -1.13129
 Alpha  occ. eigenvalues --   -1.13047  -1.13045  -1.12999  -1.12999  -1.12954
 Alpha  occ. eigenvalues --   -1.12946  -1.12945  -1.12879  -1.12878  -1.12859
 Alpha  occ. eigenvalues --   -0.20829  -0.13222  -0.13213  -0.11656
 Alpha virt. eigenvalues --   -0.05045  -0.04273  -0.04270  -0.03184  -0.03180
 Alpha virt. eigenvalues --   -0.02428  -0.00967  -0.00960  -0.00258   0.00368
 Alpha virt. eigenvalues --    0.00769   0.00798   0.00943   0.00944   0.01051

  Beta  occ. eigenvalues --  -38.43497 -38.43493 -38.43492 -38.43168 -38.43166
  Beta  occ. eigenvalues --  -38.43166 -38.43141  -2.19477  -2.19473  -2.19472
  Beta  occ. eigenvalues --   -2.19379  -2.19328  -2.19307  -2.19306  -1.13460
  Beta  occ. eigenvalues --   -1.13367  -1.13366  -1.13197  -1.13197  -1.13194
  Beta  occ. eigenvalues --   -1.13148  -1.13125  -1.13125  -1.13096  -1.13063
  Beta  occ. eigenvalues --   -1.13012  -1.13011  -1.12935  -1.12935  -1.12881
  Beta  occ. eigenvalues --   -1.12876  -1.12876  -1.12825  -1.12820  -1.12819
  Beta  occ. eigenvalues --   -0.19984  -0.12982  -0.12973
  Beta virt. eigenvalues --   -0.07346  -0.04989  -0.04236  -0.04233  -0.02458
  Beta virt. eigenvalues --   -0.02453  -0.01297  -0.00921  -0.00914   0.00023
  Beta virt. eigenvalues --    0.00400   0.00724   0.00882   0.00939   0.00940

 Mulliken charges and spin densities:
               1          2
     1  Na  -0.629665   0.590879
     2  Na  -0.223115   0.276621
     3  Na   0.432010  -0.140007
     4  Na  -0.219331   0.276069
     5  Na   0.430275  -0.140188
     6  Na  -0.222511   0.276400
     7  Na   0.432336  -0.139774
 Sum of Mulliken charges =  -0.00000   1.00000

 Dipole moment (field-independent basis, Debye):
    X=             -0.0027    Y=              0.0002    Z=             -0.2282  Tot=              0.2282
 Quadrupole moment (field-independent basis, Debye-Ang):
   XX=            -61.9627   YY=            -62.0629   ZZ=            -69.5234
   XY=             -0.0016   XZ=              0.0081   YZ=             -0.0007

 Normal termination of Gaussian 16 at Mon Nov 13 19:43:59 2023.
