 Gaussian 16, Revision B.01,
 Gaussian 16:  ES64L-G16RevB.01 20-Dec-2017

 -------------------------
 #P B3LYP/6-311+g(d) force
 -------------------------

 ------------------------------
 Gaussian input prepared by ASE
 ------------------------------
 Symbolic Z-matrix:
 Charge =  0 Multiplicity = 2

                         Standard orientation:
 ---------------------------------------------------------------------
 Center     Atomic      Atomic             Coordinates (Angstroms)
 Number     Number       Type             X           Y           Z
 ---------------------------------------------------------------------
      1         11           0       -0.796043   -1.001802   -0.479431
      2         11           0        1.455627   -1.844620    1.300668
      3         11           0        2.024091   -0.971087   -1.513466
      4         11           0        2.632747    1.731362   -0.347964
      5         11           0        0.374097    0.953181    1.474283
      6         11           0       -1.937574    1.757385   -0.262249
      7         11           0       -3.752946   -0.624419   -0.171841
 ---------------------------------------------------------------------

 SCF Done:  E(UB3LYP) =  -1136.09997362     A.U. after   22 cycles

 The electronic state is 2-A.
 Alpha  occ. eigenvalues --  -38.45223 -38.44123 -38.44041 -38.43810 -38.43602
 Alpha  occ. eigenvalues --  -38.43368 -38.43065  -2.21106  -2.20092  -2.19945
 Alpha  occ. eigenvalues --   -2.19822  -2.19613  -2.19525  -2.19166  -1.14811
 Alpha  occ. eigenvalues --   -1.14772  -1.14729  -1.13868  -1.13749  -1.13705
 Alpha  occ. eigenvalues --   -1.13691  -1.13637  -1.13583  -1.13560  -1.13502
 Alpha  occ. eigenvalues --   -1.13408  -1.13386  -1.13253  -1.13223  -1.13190
 Alpha  occ. eigenvalues --   -1.13162  -1.13072  -1.12830  -1.12779  -1.12747
 Alpha  occ. eigenvalues --   -0.19768  -0.14730  -0.11585  -0.11303
 Alpha virt. eigenvalues --   -0.06711  -0.05027  -0.03895  -0.03282  -0.02780
 Alpha virt. eigenvalues --   -0.02328  -0.02137  -0.00959  -0.00313   0.00054
 Alpha virt. eigenvalues --    0.00180   0.00355   0.00648   0.00832   0.00913

  Beta  occ. eigenvalues --  -38.45221 -38.44119 -38.44011 -38.43752 -38.43552
  Beta  occ. eigenvalues --  -38.43349 -38.43001  -2.21102  -2.20086  -2.19892
  Beta  occ. eigenvalues --   -2.19715  -2.19529  -2.19496  -2.19052  -1.14809
  Beta  occ. eigenvalues --   -1.14770  -1.14721  -1.13863  -1.13726  -1.13692
  Beta  occ. eigenvalues --   -1.13655  -1.13578  -1.13531  -1.13523  -1.13432
  Beta  occ. eigenvalues --   -1.13328  -1.13310  -1.13202  -1.13183  -1.13119
  Beta  occ. eigenvalues --   -1.13116  -1.13036  -1.12759  -1.12709  -1.12641
  Beta  occ. eigenvalues --   -0.19069  -0.14400  -0.11356
  Beta virt. eigenvalues --   -0.07292  -0.06420  -0.04979  -0.03244  -0.03204
  Beta virt. eigenvalues --   -0.02438  -0.01824  -0.01285  -0.00856  -0.00031
  Beta virt. eigenvalues --    0.00139   0.00245   0.00376   0.00776   0.00867

 Mulliken charges and spin densities:
               1          2
     1  Na   0.529890   0.572656
     2  Na  -0.106052  -0.207570
     3  Na  -0.474843   0.292971
     4  Na  -0.073523   0.000894
     5  Na   0.109513   0.424706
     6  Na  -0.194609   0.005097
     7  Na   0.209623  -0.088754
 Sum of Mulliken charges =  -0.00000   1.00000

 Dipole moment (field-independent basis, Debye):
    X=             -1.0516    Y=             -0.0264    Z=              0.1666  Tot=              1.0651
 Quadrupole moment (field-independent basis, Debye-Ang):
   XX=            -49.9447   YY=            -73.3568   ZZ=            -70.3106
   XY=              0.1477   XZ=              0.3816   YZ=             -3.1845

 Normal termination of Gaussian 16 at Mon Nov 13 15:58:02 2023.
