 Gaussian 16, Revision B.01,
 Gaussian 16:  ES64L-G16RevB.01 20-Dec-2017

 -------------------------
 #P B3LYP/6-311+g(d) force
 -------------------------

 ------------------------------
 Gaussian input prepared by ASE
 ------------------------------
 Symbolic Z-matrix:
 Charge =  0 Multiplicity = 2

                         Standard orientation:
 ---------------------------------------------------------------------
 Center     Atomic      Atomic             Coordinates (Angstroms)
 Number     Number       Type             X           Y           Z
 ---------------------------------------------------------------------
      1         11           0       -0.574622   -0.017678    1.591652
      2         11           0       -1.562798    0.655720   -1.290867
      3         11           0       -2.770942   -1.454552    0.323245
      4         11           0       -0.030788   -1.531343   -0.643932
      5         11           0       -0.376394    2.461318    0.409730
      6         11           0        1.510797    0.743212   -0.614889
      7         11           0        3.804747   -0.856678    0.225060
 ---------------------------------------------------------------------

 SCF Done:  E(UB3LYP) =  -1136.07209901     A.U. after   26 cycles

 The electronic state is 2-A.
 Alpha  occ. eigenvalues --  -38.44897 -38.44255 -38.44181 -38.44058 -38.43913
 Alpha  occ. eigenvalues --  -38.43343 -38.43343  -2.20709  -2.20485  -2.20410
 Alpha  occ. eigenvalues --   -2.20171  -2.20083  -2.19580  -2.19454  -1.14569
 Alpha  occ. eigenvalues --   -1.14445  -1.14349  -1.14329  -1.14308  -1.14241
 Alpha  occ. eigenvalues --   -1.14177  -1.14052  -1.13929  -1.13901  -1.13839
 Alpha  occ. eigenvalues --   -1.13733  -1.13689  -1.13664  -1.13614  -1.13431
 Alpha  occ. eigenvalues --   -1.13258  -1.13153  -1.13062  -1.13024  -1.12902
 Alpha  occ. eigenvalues --   -0.21035  -0.13972  -0.12458  -0.11548
 Alpha virt. eigenvalues --   -0.06704  -0.04345  -0.03535  -0.03401  -0.02594
 Alpha virt. eigenvalues --   -0.02321  -0.02072  -0.00956  -0.00237   0.00157
 Alpha virt. eigenvalues --    0.00352   0.00541   0.00828   0.00897   0.00956

  Beta  occ. eigenvalues --  -38.44904 -38.44215 -38.44096 -38.44046 -38.43847
  Beta  occ. eigenvalues --  -38.43326 -38.43317  -2.20723  -2.20412  -2.20267
  Beta  occ. eigenvalues --   -2.20075  -2.20048  -2.19540  -2.19429  -1.14516
  Beta  occ. eigenvalues --   -1.14456  -1.14355  -1.14339  -1.14218  -1.14168
  Beta  occ. eigenvalues --   -1.14086  -1.13960  -1.13868  -1.13807  -1.13766
  Beta  occ. eigenvalues --   -1.13671  -1.13635  -1.13621  -1.13557  -1.13412
  Beta  occ. eigenvalues --   -1.13228  -1.13071  -1.13034  -1.12968  -1.12884
  Beta  occ. eigenvalues --   -0.20172  -0.13775  -0.12178
  Beta virt. eigenvalues --   -0.07195  -0.06559  -0.04360  -0.03493  -0.02705
  Beta virt. eigenvalues --   -0.02135  -0.01839  -0.01147  -0.00837   0.00016
  Beta virt. eigenvalues --    0.00199   0.00340   0.00608   0.00926   0.00936

 Mulliken charges and spin densities:
               1          2
     1  Na  -0.297686   0.500182
     2  Na   0.075730   0.174683
     3  Na   0.419053  -0.046151
     4  Na  -0.310376   0.274028
     5  Na   0.214346  -0.087121
     6  Na  -0.420590   0.301513
     7  Na   0.319523  -0.117133
 Sum of Mulliken charges =  -0.00000   1.00000

 Dipole moment (field-independent basis, Debye):
    X=              0.2747    Y=             -0.1698    Z=              0.3401  Tot=              0.4689
 Quadrupole moment (field-independent basis, Debye-Ang):
   XX=            -50.8414   YY=            -69.7602   ZZ=            -71.9062
   XY=             -0.6456   XZ=              1.7247   YZ=             -0.6869

 Normal termination of Gaussian 16 at Mon Nov 13 19:39:18 2023.
