 Gaussian 16, Revision B.01,
 Gaussian 16:  ES64L-G16RevB.01 20-Dec-2017

 -------------------------
 #P B3LYP/6-311+g(d) force
 -------------------------

 ------------------------------
 Gaussian input prepared by ASE
 ------------------------------
 Symbolic Z-matrix:
 Charge =  0 Multiplicity = 2

                         Standard orientation:
 ---------------------------------------------------------------------
 Center     Atomic      Atomic             Coordinates (Angstroms)
 Number     Number       Type             X           Y           Z
 ---------------------------------------------------------------------
      1         11           0       -0.010079    1.869176    0.209521
      2         11           0        2.950232    2.276487   -0.005262
      3         11           0        2.878343   -2.239397    1.477167
      4         11           0        1.761889   -0.407626   -0.618306
      5         11           0       -0.659585   -1.851273   -1.652854
      6         11           0       -2.436635    0.403810   -0.776792
      7         11           0       -4.484165   -0.051177    1.366526
 ---------------------------------------------------------------------

 SCF Done:  E(UB3LYP) =  -1136.10101781     A.U. after   21 cycles

 The electronic state is 2-A.
 Alpha  occ. eigenvalues --  -38.44952 -38.44600 -38.44103 -38.44049 -38.43909
 Alpha  occ. eigenvalues --  -38.43774 -38.43192  -2.20787  -2.20422  -2.20064
 Alpha  occ. eigenvalues --   -2.19946  -2.19805  -2.19750  -2.19280  -1.14464
 Alpha  occ. eigenvalues --   -1.14405  -1.14400  -1.14112  -1.14054  -1.14023
 Alpha  occ. eigenvalues --   -1.13831  -1.13784  -1.13700  -1.13674  -1.13655
 Alpha  occ. eigenvalues --   -1.13560  -1.13513  -1.13453  -1.13423  -1.13394
 Alpha  occ. eigenvalues --   -1.13369  -1.13346  -1.12965  -1.12952  -1.12883
 Alpha  occ. eigenvalues --   -0.18236  -0.14448  -0.11937  -0.11414
 Alpha virt. eigenvalues --   -0.06441  -0.04988  -0.04387  -0.03689  -0.02694
 Alpha virt. eigenvalues --   -0.02330  -0.02029  -0.01195  -0.00646  -0.00332
 Alpha virt. eigenvalues --   -0.00055   0.00127   0.00461   0.00475   0.00647

  Beta  occ. eigenvalues --  -38.44855 -38.44525 -38.44098 -38.44012 -38.43907
  Beta  occ. eigenvalues --  -38.43766 -38.43185  -2.20607  -2.20282  -2.20056
  Beta  occ. eigenvalues --   -2.19881  -2.19802  -2.19745  -2.19274  -1.14346
  Beta  occ. eigenvalues --   -1.14282  -1.14277  -1.14018  -1.13959  -1.13928
  Beta  occ. eigenvalues --   -1.13837  -1.13769  -1.13687  -1.13631  -1.13612
  Beta  occ. eigenvalues --   -1.13514  -1.13510  -1.13451  -1.13415  -1.13379
  Beta  occ. eigenvalues --   -1.13370  -1.13288  -1.12957  -1.12895  -1.12885
  Beta  occ. eigenvalues --   -0.17711  -0.13648  -0.11679
  Beta virt. eigenvalues --   -0.07873  -0.06138  -0.04502  -0.04265  -0.03494
  Beta virt. eigenvalues --   -0.02273  -0.02083  -0.01506  -0.00958  -0.00343
  Beta virt. eigenvalues --   -0.00052   0.00057   0.00287   0.00517   0.00540

 Mulliken charges and spin densities:
               1          2
     1  Na   0.123044   0.256048
     2  Na   0.758010   0.007496
     3  Na   0.040852   0.343294
     4  Na  -1.095034  -0.173531
     5  Na   0.326026   0.363439
     6  Na   0.308448  -0.254542
     7  Na  -0.461345   0.457796
 Sum of Mulliken charges =  -0.00000   1.00000

 Dipole moment (field-independent basis, Debye):
    X=             -0.0120    Y=             -0.2726    Z=              0.6419  Tot=              0.6975
 Quadrupole moment (field-independent basis, Debye-Ang):
   XX=            -59.9085   YY=            -70.7696   ZZ=            -65.7740
   XY=              4.5374   XZ=             -0.1312   YZ=             -1.9195

 Normal termination of Gaussian 16 at Mon Nov 13 15:06:31 2023.
