 Gaussian 16, Revision B.01,
 Gaussian 16:  ES64L-G16RevB.01 20-Dec-2017

 -------------------------
 #P B3LYP/6-311+g(d) force
 -------------------------

 ------------------------------
 Gaussian input prepared by ASE
 ------------------------------
 Symbolic Z-matrix:
 Charge =  0 Multiplicity = 2

                         Standard orientation:
 ---------------------------------------------------------------------
 Center     Atomic      Atomic             Coordinates (Angstroms)
 Number     Number       Type             X           Y           Z
 ---------------------------------------------------------------------
      1         11           0        0.000349    0.000531   -1.461551
      2         11           0       -2.599405    0.342540   -0.000101
      3         11           0        2.303410    1.250620    0.000611
      4         11           0        1.900010   -1.803817   -0.000594
      5         11           0       -0.476120    2.573834   -0.000347
      6         11           0       -0.000978   -0.001859    1.463079
      7         11           0       -1.127265   -2.361849   -0.001096
 ---------------------------------------------------------------------

 SCF Done:  E(UB3LYP) =  -1136.10547066     A.U. after   19 cycles

 The electronic state is 2-A.
 Alpha  occ. eigenvalues --  -38.43437 -38.43437 -38.43436 -38.43435 -38.43434
 Alpha  occ. eigenvalues --  -38.43005 -38.43004  -2.19499  -2.19489  -2.19488
 Alpha  occ. eigenvalues --   -2.19469  -2.19469  -2.19326  -2.19297  -1.13479
 Alpha  occ. eigenvalues --   -1.13394  -1.13392  -1.13253  -1.13252  -1.13202
 Alpha  occ. eigenvalues --   -1.13202  -1.13163  -1.13112  -1.13112  -1.13102
 Alpha  occ. eigenvalues --   -1.13101  -1.13041  -1.13038  -1.13037  -1.12963
 Alpha  occ. eigenvalues --   -1.12855  -1.12847  -1.12846  -1.12837  -1.12837
 Alpha  occ. eigenvalues --   -0.20996  -0.13540  -0.13536  -0.10996
 Alpha virt. eigenvalues --   -0.04939  -0.04775  -0.04775  -0.02959  -0.02957
 Alpha virt. eigenvalues --   -0.01860  -0.01066  -0.01060   0.00080   0.00366
 Alpha virt. eigenvalues --    0.00385   0.00386   0.01004   0.01007   0.01064

  Beta  occ. eigenvalues --  -38.43426 -38.43426 -38.43425 -38.43424 -38.43423
  Beta  occ. eigenvalues --  -38.42926 -38.42925  -2.19482  -2.19475  -2.19474
  Beta  occ. eigenvalues --   -2.19455  -2.19455  -2.19187  -2.19154  -1.13443
  Beta  occ. eigenvalues --   -1.13369  -1.13367  -1.13251  -1.13251  -1.13134
  Beta  occ. eigenvalues --   -1.13134  -1.13108  -1.13107  -1.13103  -1.13044
  Beta  occ. eigenvalues --   -1.13044  -1.13033  -1.13032  -1.12976  -1.12960
  Beta  occ. eigenvalues --   -1.12756  -1.12754  -1.12753  -1.12749  -1.12749
  Beta  occ. eigenvalues --   -0.20237  -0.13194  -0.13189
  Beta virt. eigenvalues --   -0.06890  -0.04987  -0.04754  -0.04753  -0.02062
  Beta virt. eigenvalues --   -0.02060  -0.01002  -0.00996  -0.00851   0.00197
  Beta virt. eigenvalues --    0.00343   0.00343   0.00418   0.01018   0.01021

 Mulliken charges and spin densities:
               1          2
     1  Na  -0.865017   0.512125
     2  Na   0.344924  -0.005283
     3  Na   0.343289  -0.005740
     4  Na   0.345427  -0.005407
     5  Na   0.345031  -0.005085
     6  Na  -0.861282   0.514200
     7  Na   0.347628  -0.004810
 Sum of Mulliken charges =  -0.00000   1.00000

 Dipole moment (field-independent basis, Debye):
    X=              0.0010    Y=              0.0016    Z=              0.0013  Tot=              0.0023
 Quadrupole moment (field-independent basis, Debye-Ang):
   XX=            -59.4233   YY=            -59.5105   ZZ=            -74.5966
   XY=             -0.0033   XZ=              0.0031   YZ=              0.0055

 Normal termination of Gaussian 16 at Mon Nov 13 20:38:36 2023.
