 Gaussian 16, Revision B.01,
 Gaussian 16:  ES64L-G16RevB.01 20-Dec-2017

 -------------------------
 #P B3LYP/6-311+g(d) force
 -------------------------

 ------------------------------
 Gaussian input prepared by ASE
 ------------------------------
 Symbolic Z-matrix:
 Charge =  0 Multiplicity = 2

                         Standard orientation:
 ---------------------------------------------------------------------
 Center     Atomic      Atomic             Coordinates (Angstroms)
 Number     Number       Type             X           Y           Z
 ---------------------------------------------------------------------
      1         11           0        0.705694   -0.486130   -1.294382
      2         11           0        1.805641    2.287949   -0.934385
      3         11           0        2.530797   -2.567427   -0.159093
      4         11           0        1.025409   -0.754012    1.679194
      5         11           0       -0.086370    2.022054    1.381659
      6         11           0       -1.939367    0.773653   -0.627556
      7         11           0       -4.041803   -1.276088   -0.045437
 ---------------------------------------------------------------------

 SCF Done:  E(UB3LYP) =  -1136.10581081     A.U. after   19 cycles

 The electronic state is 2-A.
 Alpha  occ. eigenvalues --  -38.44342 -38.44326 -38.43973 -38.43926 -38.43797
 Alpha  occ. eigenvalues --  -38.43662 -38.43412  -2.20259  -2.20116  -2.20027
 Alpha  occ. eigenvalues --   -2.19984  -2.19815  -2.19562  -2.19395  -1.14004
 Alpha  occ. eigenvalues --   -1.13947  -1.13872  -1.13834  -1.13826  -1.13772
 Alpha  occ. eigenvalues --   -1.13763  -1.13758  -1.13727  -1.13614  -1.13588
 Alpha  occ. eigenvalues --   -1.13560  -1.13514  -1.13430  -1.13396  -1.13214
 Alpha  occ. eigenvalues --   -1.13197  -1.13177  -1.13085  -1.13039  -1.12974
 Alpha  occ. eigenvalues --   -0.19403  -0.13293  -0.12335  -0.11616
 Alpha virt. eigenvalues --   -0.06366  -0.05153  -0.03660  -0.03242  -0.02918
 Alpha virt. eigenvalues --   -0.02821  -0.01874  -0.01329  -0.00397   0.00023
 Alpha virt. eigenvalues --    0.00156   0.00460   0.00670   0.00761   0.00902

  Beta  occ. eigenvalues --  -38.44336 -38.44304 -38.43904 -38.43870 -38.43745
  Beta  occ. eigenvalues --  -38.43661 -38.43398  -2.20193  -2.20135  -2.19928
  Beta  occ. eigenvalues --   -2.19860  -2.19724  -2.19561  -2.19373  -1.13949
  Beta  occ. eigenvalues --   -1.13890  -1.13838  -1.13821  -1.13775  -1.13771
  Beta  occ. eigenvalues --   -1.13757  -1.13699  -1.13633  -1.13542  -1.13506
  Beta  occ. eigenvalues --   -1.13473  -1.13456  -1.13361  -1.13319  -1.13200
  Beta  occ. eigenvalues --   -1.13181  -1.13173  -1.13061  -1.13006  -1.12961
  Beta  occ. eigenvalues --   -0.18593  -0.13170  -0.12224
  Beta virt. eigenvalues --   -0.07327  -0.06205  -0.05028  -0.03192  -0.03011
  Beta virt. eigenvalues --   -0.02310  -0.02060  -0.01493  -0.01287  -0.00157
  Beta virt. eigenvalues --    0.00046   0.00207   0.00567   0.00791   0.00849

 Mulliken charges and spin densities:
               1          2
     1  Na  -0.693284   0.356160
     2  Na   0.410538   0.108940
     3  Na   0.634403   0.058782
     4  Na  -0.485650   0.240644
     5  Na   0.037401   0.130221
     6  Na   0.068439   0.156003
     7  Na   0.028154  -0.050750
 Sum of Mulliken charges =  -0.00000   1.00000

 Dipole moment (field-independent basis, Debye):
    X=              0.5707    Y=             -0.1048    Z=              0.2443  Tot=              0.6296
 Quadrupole moment (field-independent basis, Debye-Ang):
   XX=            -59.6943   YY=            -63.0316   ZZ=            -70.9806
   XY=              2.5286   XZ=             -3.1773   YZ=             -0.4294

 Normal termination of Gaussian 16 at Mon Nov 13 15:25:54 2023.
