 Gaussian 16, Revision B.01,
 Gaussian 16:  ES64L-G16RevB.01 20-Dec-2017

 -------------------------
 #P B3LYP/6-311+g(d) force
 -------------------------

 ------------------------------
 Gaussian input prepared by ASE
 ------------------------------
 Symbolic Z-matrix:
 Charge =  0 Multiplicity = 2

                         Standard orientation:
 ---------------------------------------------------------------------
 Center     Atomic      Atomic             Coordinates (Angstroms)
 Number     Number       Type             X           Y           Z
 ---------------------------------------------------------------------
      1         11           0        1.046922   -1.526230   -0.852385
      2         11           0        1.434364    1.142630   -1.021334
      3         11           0        3.308866   -0.398178    0.551210
      4         11           0        0.606001   -0.225932    1.555493
      5         11           0       -0.828782    2.054465    0.151051
      6         11           0       -1.427199   -0.448850   -0.690736
      7         11           0       -4.140173   -0.597906    0.306701
 ---------------------------------------------------------------------

 SCF Done:  E(UB3LYP) =  -1136.05751265     A.U. after   38 cycles

 The electronic state is 2-A.
 Alpha  occ. eigenvalues --  -38.45445 -38.45019 -38.44924 -38.44447 -38.43793
 Alpha  occ. eigenvalues --  -38.43761 -38.43058  -2.21254  -2.21127  -2.21050
 Alpha  occ. eigenvalues --   -2.20677  -2.20064  -2.19997  -2.19153  -1.15099
 Alpha  occ. eigenvalues --   -1.14991  -1.14930  -1.14884  -1.14880  -1.14785
 Alpha  occ. eigenvalues --   -1.14725  -1.14664  -1.14576  -1.14508  -1.14371
 Alpha  occ. eigenvalues --   -1.14198  -1.13870  -1.13731  -1.13662  -1.13650
 Alpha  occ. eigenvalues --   -1.13627  -1.13537  -1.12800  -1.12746  -1.12713
 Alpha  occ. eigenvalues --   -0.21132  -0.14666  -0.11707  -0.11463
 Alpha virt. eigenvalues --   -0.07834  -0.04358  -0.03905  -0.03066  -0.03039
 Alpha virt. eigenvalues --   -0.02010  -0.01924  -0.01016  -0.00551  -0.00162
 Alpha virt. eigenvalues --    0.00247   0.00386   0.00490   0.00820   0.00968

  Beta  occ. eigenvalues --  -38.45435 -38.44990 -38.44865 -38.44384 -38.43757
  Beta  occ. eigenvalues --  -38.43722 -38.43048  -2.21236  -2.21030  -2.20993
  Beta  occ. eigenvalues --   -2.20572  -2.20008  -2.19936  -2.19139  -1.15044
  Beta  occ. eigenvalues --   -1.14976  -1.14872  -1.14864  -1.14858  -1.14730
  Beta  occ. eigenvalues --   -1.14660  -1.14616  -1.14509  -1.14416  -1.14309
  Beta  occ. eigenvalues --   -1.14092  -1.13838  -1.13694  -1.13633  -1.13606
  Beta  occ. eigenvalues --   -1.13515  -1.13440  -1.12789  -1.12708  -1.12702
  Beta  occ. eigenvalues --   -0.20272  -0.14360  -0.11336
  Beta virt. eigenvalues --   -0.07714  -0.07275  -0.04289  -0.03280  -0.02932
  Beta virt. eigenvalues --   -0.02857  -0.01405  -0.01041  -0.00830  -0.00323
  Beta virt. eigenvalues --   -0.00072   0.00274   0.00496   0.00596   0.00883

 Mulliken charges and spin densities:
               1          2
     1  Na   0.111522   0.181424
     2  Na  -0.117198   0.212959
     3  Na   1.250024   0.059955
     4  Na  -0.917510   0.465492
     5  Na   0.215808  -0.020636
     6  Na  -1.273437  -0.025895
     7  Na   0.730791   0.126702
 Sum of Mulliken charges =  -0.00000   1.00000

 Dipole moment (field-independent basis, Debye):
    X=             -0.1206    Y=              0.5777    Z=              0.3258  Tot=              0.6741
 Quadrupole moment (field-independent basis, Debye-Ang):
   XX=            -47.0135   YY=            -76.0127   ZZ=            -70.7692
   XY=              0.0352   XZ=             -2.4383   YZ=             -0.4109

 Normal termination of Gaussian 16 at Mon Nov 13 19:16:09 2023.
