 Gaussian 16, Revision B.01,
 Gaussian 16:  ES64L-G16RevB.01 20-Dec-2017

 -------------------------
 #P B3LYP/6-311+g(d) force
 -------------------------

 ------------------------------
 Gaussian input prepared by ASE
 ------------------------------
 Symbolic Z-matrix:
 Charge =  0 Multiplicity = 2

                         Standard orientation:
 ---------------------------------------------------------------------
 Center     Atomic      Atomic             Coordinates (Angstroms)
 Number     Number       Type             X           Y           Z
 ---------------------------------------------------------------------
      1         11           0        0.440183    0.212781   -1.502332
      2         11           0        0.911082   -1.645640    0.491223
      3         11           0       -1.397116   -0.613435    1.639612
      4         11           0       -1.857525   -1.280926   -1.022868
      5         11           0       -1.968153    1.740434   -0.326838
      6         11           0        0.799195    1.443133    0.991827
      7         11           0        3.072334    0.143654   -0.270624
 ---------------------------------------------------------------------

 SCF Done:  E(UB3LYP) =  -1136.08412248     A.U. after   22 cycles

 The electronic state is 2-A.
 Alpha  occ. eigenvalues --  -38.44528 -38.44221 -38.44188 -38.43865 -38.43222
 Alpha  occ. eigenvalues --  -38.43037 -38.43016  -2.20553  -2.20503  -2.20381
 Alpha  occ. eigenvalues --   -2.19977  -2.19396  -2.19222  -2.19063  -1.14477
 Alpha  occ. eigenvalues --   -1.14353  -1.14223  -1.14206  -1.14171  -1.14143
 Alpha  occ. eigenvalues --   -1.14129  -1.14060  -1.13966  -1.13609  -1.13557
 Alpha  occ. eigenvalues --   -1.13527  -1.13120  -1.13027  -1.13020  -1.12903
 Alpha  occ. eigenvalues --   -1.12868  -1.12759  -1.12746  -1.12706  -1.12672
 Alpha  occ. eigenvalues --   -0.21397  -0.14399  -0.12497  -0.11909
 Alpha virt. eigenvalues --   -0.05811  -0.04153  -0.04076  -0.03514  -0.02759
 Alpha virt. eigenvalues --   -0.02716  -0.01508  -0.00374  -0.00321   0.00291
 Alpha virt. eigenvalues --    0.00656   0.00850   0.00930   0.01048   0.01054

  Beta  occ. eigenvalues --  -38.44524 -38.44152 -38.44114 -38.43828 -38.43184
  Beta  occ. eigenvalues --  -38.43026 -38.42990  -2.20543  -2.20376  -2.20258
  Beta  occ. eigenvalues --   -2.19915  -2.19332  -2.19185  -2.19048  -1.14428
  Beta  occ. eigenvalues --   -1.14278  -1.14192  -1.14185  -1.14111  -1.14073
  Beta  occ. eigenvalues --   -1.14022  -1.13985  -1.13877  -1.13548  -1.13510
  Beta  occ. eigenvalues --   -1.13466  -1.13082  -1.12988  -1.12939  -1.12878
  Beta  occ. eigenvalues --   -1.12798  -1.12735  -1.12720  -1.12678  -1.12646
  Beta  occ. eigenvalues --   -0.20546  -0.14149  -0.11657
  Beta virt. eigenvalues --   -0.08080  -0.05718  -0.04114  -0.03370  -0.03223
  Beta virt. eigenvalues --   -0.01996  -0.01732  -0.01430  -0.00359  -0.00050
  Beta virt. eigenvalues --    0.00329   0.00705   0.00839   0.01049   0.01082

 Mulliken charges and spin densities:
               1          2
     1  Na  -0.132997   0.333524
     2  Na  -0.737941   0.226282
     3  Na   0.679939   0.272999
     4  Na  -0.077527  -0.043553
     5  Na  -0.252448  -0.031349
     6  Na  -0.551172   0.252823
     7  Na   1.072146  -0.010725
 Sum of Mulliken charges =  -0.00000   1.00000

 Dipole moment (field-independent basis, Debye):
    X=              0.2013    Y=              0.1294    Z=              0.0541  Tot=              0.2453
 Quadrupole moment (field-independent basis, Debye-Ang):
   XX=            -54.0053   YY=            -75.1627   ZZ=            -66.4425
   XY=             -0.1182   XZ=              0.2508   YZ=              0.3944

 Normal termination of Gaussian 16 at Mon Nov 13 17:09:39 2023.
