 Gaussian 16, Revision B.01,
 Gaussian 16:  ES64L-G16RevB.01 20-Dec-2017

 -------------------------
 #P B3LYP/6-311+g(d) force
 -------------------------

 ------------------------------
 Gaussian input prepared by ASE
 ------------------------------
 Symbolic Z-matrix:
 Charge =  0 Multiplicity = 2

                         Standard orientation:
 ---------------------------------------------------------------------
 Center     Atomic      Atomic             Coordinates (Angstroms)
 Number     Number       Type             X           Y           Z
 ---------------------------------------------------------------------
      1         11           0       -0.529939   -0.001015    1.723994
      2         11           0        1.193950   -1.801607    0.031634
      3         11           0        3.572850    0.000272   -0.027446
      4         11           0        1.191617    1.803402    0.031646
      5         11           0       -0.476971   -0.000853   -1.711393
      6         11           0       -2.475637   -1.478486   -0.024290
      7         11           0       -2.475871    1.478286   -0.024144
 ---------------------------------------------------------------------

 SCF Done:  E(UB3LYP) =  -1136.10292587     A.U. after   19 cycles

 The electronic state is 2-A.
 Alpha  occ. eigenvalues --  -38.45725 -38.43928 -38.43928 -38.43752 -38.43698
 Alpha  occ. eigenvalues --  -38.42890 -38.42885  -2.21601  -2.19954  -2.19925
 Alpha  occ. eigenvalues --   -2.19884  -2.19833  -2.18907  -2.18902  -1.15284
 Alpha  occ. eigenvalues --   -1.15282  -1.15228  -1.13885  -1.13703  -1.13648
 Alpha  occ. eigenvalues --   -1.13646  -1.13622  -1.13594  -1.13525  -1.13454
 Alpha  occ. eigenvalues --   -1.13438  -1.13429  -1.13396  -1.13389  -1.12624
 Alpha  occ. eigenvalues --   -1.12605  -1.12574  -1.12568  -1.12509  -1.12490
 Alpha  occ. eigenvalues --   -0.20437  -0.14717  -0.11515  -0.11317
 Alpha virt. eigenvalues --   -0.07041  -0.04820  -0.03949  -0.03146  -0.02500
 Alpha virt. eigenvalues --   -0.02243  -0.02194  -0.00899  -0.00113   0.00002
 Alpha virt. eigenvalues --    0.00278   0.00384   0.00686   0.00840   0.00947

  Beta  occ. eigenvalues --  -38.45733 -38.43914 -38.43913 -38.43667 -38.43609
  Beta  occ. eigenvalues --  -38.42877 -38.42873  -2.21617  -2.19931  -2.19905
  Beta  occ. eigenvalues --   -2.19730  -2.19672  -2.18890  -2.18885  -1.15299
  Beta  occ. eigenvalues --   -1.15294  -1.15226  -1.13860  -1.13626  -1.13614
  Beta  occ. eigenvalues --   -1.13613  -1.13548  -1.13501  -1.13445  -1.13414
  Beta  occ. eigenvalues --   -1.13343  -1.13342  -1.13300  -1.13291  -1.12615
  Beta  occ. eigenvalues --   -1.12598  -1.12514  -1.12508  -1.12505  -1.12486
  Beta  occ. eigenvalues --   -0.19661  -0.14449  -0.11200
  Beta virt. eigenvalues --   -0.07224  -0.06943  -0.04848  -0.03076  -0.03050
  Beta virt. eigenvalues --   -0.02416  -0.01404  -0.01262  -0.00874   0.00009
  Beta virt. eigenvalues --    0.00090   0.00312   0.00351   0.00894   0.00939

 Mulliken charges and spin densities:
               1          2
     1  Na  -0.285746   0.408307
     2  Na   0.085336   0.099902
     3  Na  -0.254455  -0.122170
     4  Na   0.083300   0.098990
     5  Na  -0.342211   0.397345
     6  Na   0.357866   0.059143
     7  Na   0.355911   0.058483
 Sum of Mulliken charges =  -0.00000   1.00000

 Dipole moment (field-independent basis, Debye):
    X=              0.6757    Y=              0.0012    Z=             -0.0102  Tot=              0.6758
 Quadrupole moment (field-independent basis, Debye-Ang):
   XX=            -44.6049   YY=            -75.4906   ZZ=            -72.4898
   XY=              0.0031   XZ=             -0.0564   YZ=              0.0004

 Normal termination of Gaussian 16 at Mon Nov 13 17:45:15 2023.
