 Gaussian 16, Revision B.01,
 Gaussian 16:  ES64L-G16RevB.01 20-Dec-2017

 -------------------------
 #P B3LYP/6-311+g(d) force
 -------------------------

 ------------------------------
 Gaussian input prepared by ASE
 ------------------------------
 Symbolic Z-matrix:
 Charge =  0 Multiplicity = 2

                         Standard orientation:
 ---------------------------------------------------------------------
 Center     Atomic      Atomic             Coordinates (Angstroms)
 Number     Number       Type             X           Y           Z
 ---------------------------------------------------------------------
      1         11           0        0.363540   -0.069730    1.367291
      2         11           0        1.088169   -1.245249   -1.293307
      3         11           0        3.245127   -0.405959    0.610743
      4         11           0        1.562121    1.667652   -0.751835
      5         11           0       -1.294664    2.078069    0.077387
      6         11           0       -3.520339    0.067707   -0.090609
      7         11           0       -1.443955   -2.092488    0.080331
 ---------------------------------------------------------------------

 SCF Done:  E(UB3LYP) =  -1136.09702013     A.U. after   25 cycles

 The electronic state is 2-A.
 Alpha  occ. eigenvalues --  -38.45835 -38.45264 -38.43721 -38.43398 -38.43389
 Alpha  occ. eigenvalues --  -38.43309 -38.43117  -2.21701  -2.21241  -2.19908
 Alpha  occ. eigenvalues --   -2.19476  -2.19395  -2.19354  -2.19084  -1.15389
 Alpha  occ. eigenvalues --   -1.15372  -1.15334  -1.14964  -1.14889  -1.14872
 Alpha  occ. eigenvalues --   -1.13687  -1.13599  -1.13562  -1.13234  -1.13184
 Alpha  occ. eigenvalues --   -1.13155  -1.13095  -1.13018  -1.13009  -1.12989
 Alpha  occ. eigenvalues --   -1.12963  -1.12899  -1.12767  -1.12722  -1.12701
 Alpha  occ. eigenvalues --   -0.20104  -0.14772  -0.12092  -0.10601
 Alpha virt. eigenvalues --   -0.07298  -0.05093  -0.03845  -0.03637  -0.02707
 Alpha virt. eigenvalues --   -0.02182  -0.01702  -0.00873  -0.00192  -0.00033
 Alpha virt. eigenvalues --    0.00123   0.00228   0.00627   0.00814   0.00871

  Beta  occ. eigenvalues --  -38.45840 -38.45231 -38.43659 -38.43382 -38.43364
  Beta  occ. eigenvalues --  -38.43252 -38.43111  -2.21712  -2.21187  -2.19799
  Beta  occ. eigenvalues --   -2.19419  -2.19346  -2.19292  -2.19076  -1.15402
  Beta  occ. eigenvalues --   -1.15379  -1.15332  -1.14935  -1.14840  -1.14806
  Beta  occ. eigenvalues --   -1.13607  -1.13526  -1.13477  -1.13179  -1.13147
  Beta  occ. eigenvalues --   -1.13116  -1.13022  -1.12987  -1.12973  -1.12948
  Beta  occ. eigenvalues --   -1.12898  -1.12833  -1.12760  -1.12719  -1.12668
  Beta  occ. eigenvalues --   -0.19376  -0.14527  -0.11865
  Beta virt. eigenvalues --   -0.07185  -0.06521  -0.05094  -0.03683  -0.02962
  Beta virt. eigenvalues --   -0.02595  -0.01558  -0.00820  -0.00772  -0.00002
  Beta virt. eigenvalues --    0.00076   0.00174   0.00246   0.00775   0.00879

 Mulliken charges and spin densities:
               1          2
     1  Na  -1.483180   0.016606
     2  Na  -0.493428   0.233358
     3  Na   0.913784   0.207514
     4  Na  -0.057484   0.279618
     5  Na   0.715624   0.132960
     6  Na  -0.761872  -0.145272
     7  Na   1.166556   0.275215
 Sum of Mulliken charges =  -0.00000   1.00000

 Dipole moment (field-independent basis, Debye):
    X=             -0.4139    Y=             -0.1281    Z=             -0.2606  Tot=              0.5056
 Quadrupole moment (field-independent basis, Debye-Ang):
   XX=            -43.4768   YY=            -73.6201   ZZ=            -75.5756
   XY=             -0.2946   XZ=              0.7233   YZ=             -0.7315

 Normal termination of Gaussian 16 at Mon Nov 13 16:49:58 2023.
