 Gaussian 16, Revision B.01,
 Gaussian 16:  ES64L-G16RevB.01 20-Dec-2017

 -------------------------
 #P B3LYP/6-311+g(d) force
 -------------------------

 ------------------------------
 Gaussian input prepared by ASE
 ------------------------------
 Symbolic Z-matrix:
 Charge =  0 Multiplicity = 2

                         Standard orientation:
 ---------------------------------------------------------------------
 Center     Atomic      Atomic             Coordinates (Angstroms)
 Number     Number       Type             X           Y           Z
 ---------------------------------------------------------------------
      1         11           0       -0.458193   -0.431945   -1.301448
      2         11           0        0.424306    2.397674   -0.781188
      3         11           0       -3.264725   -0.823775   -0.331083
      4         11           0       -1.448198    1.067763    1.106645
      5         11           0        1.519836    0.689624    1.436849
      6         11           0        2.522163   -0.749968   -1.009939
      7         11           0        0.704810   -2.149374    0.880163
 ---------------------------------------------------------------------

 SCF Done:  E(UB3LYP) =  -1136.10855600     A.U. after   19 cycles

 The electronic state is 2-A.
 Alpha  occ. eigenvalues --  -38.44094 -38.43999 -38.43474 -38.43430 -38.43308
 Alpha  occ. eigenvalues --  -38.43209 -38.42963  -2.20008  -2.19984  -2.19599
 Alpha  occ. eigenvalues --   -2.19438  -2.19425  -2.19399  -2.18973  -1.13787
 Alpha  occ. eigenvalues --   -1.13731  -1.13695  -1.13673  -1.13620  -1.13587
 Alpha  occ. eigenvalues --   -1.13404  -1.13303  -1.13247  -1.13213  -1.13205
 Alpha  occ. eigenvalues --   -1.13065  -1.13041  -1.13040  -1.13018  -1.13009
 Alpha  occ. eigenvalues --   -1.12970  -1.12958  -1.12638  -1.12592  -1.12565
 Alpha  occ. eigenvalues --   -0.20417  -0.13705  -0.12268  -0.11843
 Alpha virt. eigenvalues --   -0.05725  -0.04234  -0.03980  -0.03474  -0.02995
 Alpha virt. eigenvalues --   -0.02635  -0.01490  -0.00561  -0.00384   0.00321
 Alpha virt. eigenvalues --    0.00580   0.00597   0.00832   0.00988   0.01026

  Beta  occ. eigenvalues --  -38.44094 -38.43971 -38.43418 -38.43403 -38.43276
  Beta  occ. eigenvalues --  -38.43151 -38.42942  -2.19984  -2.19960  -2.19501
  Beta  occ. eigenvalues --   -2.19388  -2.19354  -2.19320  -2.18938  -1.13760
  Beta  occ. eigenvalues --   -1.13723  -1.13666  -1.13642  -1.13586  -1.13576
  Beta  occ. eigenvalues --   -1.13343  -1.13241  -1.13171  -1.13151  -1.13149
  Beta  occ. eigenvalues --   -1.13007  -1.12991  -1.12980  -1.12972  -1.12951
  Beta  occ. eigenvalues --   -1.12910  -1.12894  -1.12613  -1.12558  -1.12522
  Beta  occ. eigenvalues --   -0.19581  -0.13515  -0.12050
  Beta virt. eigenvalues --   -0.07530  -0.05631  -0.04174  -0.03785  -0.02950
  Beta virt. eigenvalues --   -0.02300  -0.01634  -0.01286  -0.00542  -0.00080
  Beta virt. eigenvalues --    0.00355   0.00586   0.00640   0.00929   0.01007

 Mulliken charges and spin densities:
               1          2
     1  Na  -0.040691   0.188354
     2  Na  -0.252485   0.187756
     3  Na   0.332992   0.006784
     4  Na  -0.235647   0.138838
     5  Na   0.380058   0.336429
     6  Na   0.191045  -0.080525
     7  Na  -0.375272   0.222364
 Sum of Mulliken charges =  -0.00000   1.00000

 Dipole moment (field-independent basis, Debye):
    X=             -0.0534    Y=             -0.1769    Z=             -0.0325  Tot=              0.1876
 Quadrupole moment (field-independent basis, Debye-Ang):
   XX=            -56.4631   YY=            -69.7632   ZZ=            -68.0102
   XY=              1.1116   XZ=             -1.4584   YZ=             -1.6048

 Normal termination of Gaussian 16 at Mon Nov 13 17:51:25 2023.
