 Gaussian 16, Revision B.01,
 Gaussian 16:  ES64L-G16RevB.01 20-Dec-2017

 -------------------------
 #P B3LYP/6-311+g(d) force
 -------------------------

 ------------------------------
 Gaussian input prepared by ASE
 ------------------------------
 Symbolic Z-matrix:
 Charge =  0 Multiplicity = 2

                         Standard orientation:
 ---------------------------------------------------------------------
 Center     Atomic      Atomic             Coordinates (Angstroms)
 Number     Number       Type             X           Y           Z
 ---------------------------------------------------------------------
      1         11           0        3.414941    1.823735   -0.024513
      2         11           0       -5.086873    2.201758    0.005234
      3         11           0       -4.295317   -2.220503   -0.062425
      4         11           0       -2.729492    0.342033    0.013405
      5         11           0       -0.026940   -0.958685    0.069968
      6         11           0        2.967107   -1.141030    0.039334
      7         11           0        5.756575   -0.047309   -0.041002
 ---------------------------------------------------------------------

 SCF Done:  E(UB3LYP) =  -1136.09535366     A.U. after   24 cycles

 The electronic state is 2-A.
 Alpha  occ. eigenvalues --  -38.46708 -38.44564 -38.44259 -38.44123 -38.43596
 Alpha  occ. eigenvalues --  -38.43347 -38.42316  -2.22577  -2.20559  -2.20175
 Alpha  occ. eigenvalues --   -2.19959  -2.19441  -2.19319  -2.18218  -1.16294
 Alpha  occ. eigenvalues --   -1.16238  -1.16190  -1.14266  -1.14255  -1.14207
 Alpha  occ. eigenvalues --   -1.13827  -1.13815  -1.13792  -1.13651  -1.13594
 Alpha  occ. eigenvalues --   -1.13562  -1.13212  -1.13068  -1.13053  -1.12970
 Alpha  occ. eigenvalues --   -1.12954  -1.12942  -1.11946  -1.11854  -1.11825
 Alpha  occ. eigenvalues --   -0.17184  -0.15433  -0.11523  -0.10299
 Alpha virt. eigenvalues --   -0.07092  -0.05737  -0.04398  -0.03266  -0.03033
 Alpha virt. eigenvalues --   -0.02302  -0.01864  -0.01691  -0.00837  -0.00672
 Alpha virt. eigenvalues --   -0.00103   0.00049   0.00128   0.00485   0.00573

  Beta  occ. eigenvalues --  -38.46715 -38.44570 -38.44242 -38.44029 -38.43507
  Beta  occ. eigenvalues --  -38.43335 -38.42316  -2.22591  -2.20572  -2.20143
  Beta  occ. eigenvalues --   -2.19785  -2.19312  -2.19274  -2.18220  -1.16303
  Beta  occ. eigenvalues --   -1.16249  -1.16192  -1.14279  -1.14247  -1.14216
  Beta  occ. eigenvalues --   -1.13807  -1.13800  -1.13770  -1.13539  -1.13475
  Beta  occ. eigenvalues --   -1.13439  -1.13134  -1.12972  -1.12954  -1.12941
  Beta  occ. eigenvalues --   -1.12916  -1.12863  -1.11956  -1.11857  -1.11804
  Beta  occ. eigenvalues --   -0.17080  -0.14702  -0.11162
  Beta virt. eigenvalues --   -0.07098  -0.06551  -0.05220  -0.04385  -0.03055
  Beta virt. eigenvalues --   -0.02805  -0.01865  -0.01676  -0.01292  -0.00558
  Beta virt. eigenvalues --   -0.00329   0.00153   0.00189   0.00254   0.00615

 Mulliken charges and spin densities:
               1          2
     1  Na  -0.290076  -0.065669
     2  Na   0.550004   0.315517
     3  Na   0.756812   0.306228
     4  Na  -1.113798   0.213923
     5  Na  -0.518421   0.238309
     6  Na  -1.088216  -0.072763
     7  Na   1.703695   0.064456
 Sum of Mulliken charges =  -0.00000   1.00000

 Dipole moment (field-independent basis, Debye):
    X=              2.9220    Y=              0.5718    Z=             -0.0553  Tot=              2.9779
 Quadrupole moment (field-independent basis, Debye-Ang):
   XX=            -59.8614   YY=            -63.2539   ZZ=            -73.6178
   XY=              1.3379   XZ=              0.0988   YZ=             -0.0549

 Normal termination of Gaussian 16 at Mon Nov 13 15:04:04 2023.
