 Gaussian 16, Revision B.01,
 Gaussian 16:  ES64L-G16RevB.01 20-Dec-2017

 -------------------------
 #P B3LYP/6-311+g(d) force
 -------------------------

 ------------------------------
 Gaussian input prepared by ASE
 ------------------------------
 Symbolic Z-matrix:
 Charge =  0 Multiplicity = 2

                         Standard orientation:
 ---------------------------------------------------------------------
 Center     Atomic      Atomic             Coordinates (Angstroms)
 Number     Number       Type             X           Y           Z
 ---------------------------------------------------------------------
      1         11           0       -1.004249    1.285335   -0.629203
      2         11           0       -2.408563   -1.255033   -1.393213
      3         11           0       -3.809242    0.780385    0.305011
      4         11           0       -1.534541   -0.810855    1.441333
      5         11           0        1.292174   -0.148232    0.669847
      6         11           0        3.609774    1.568701   -0.156939
      7         11           0        3.854647   -1.420301   -0.236835
 ---------------------------------------------------------------------

 SCF Done:  E(UB3LYP) =  -1136.07799705     A.U. after   30 cycles

 The electronic state is 2-A.
 Alpha  occ. eigenvalues --  -38.45434 -38.44683 -38.44190 -38.43951 -38.43713
 Alpha  occ. eigenvalues --  -38.43598 -38.41945  -2.21414  -2.20566  -2.20090
 Alpha  occ. eigenvalues --   -2.19938  -2.19831  -2.19709  -2.18076  -1.15146
 Alpha  occ. eigenvalues --   -1.15100  -1.14994  -1.14295  -1.14224  -1.14200
 Alpha  occ. eigenvalues --   -1.13785  -1.13765  -1.13714  -1.13692  -1.13631
 Alpha  occ. eigenvalues --   -1.13555  -1.13540  -1.13500  -1.13393  -1.13362
 Alpha  occ. eigenvalues --   -1.13320  -1.13273  -1.11775  -1.11726  -1.11725
 Alpha  occ. eigenvalues --   -0.19239  -0.15516  -0.10684  -0.10328
 Alpha virt. eigenvalues --   -0.07529  -0.06163  -0.03951  -0.03378  -0.02682
 Alpha virt. eigenvalues --   -0.01807  -0.01475  -0.01408  -0.00675  -0.00506
 Alpha virt. eigenvalues --   -0.00302   0.00160   0.00327   0.00526   0.00604

  Beta  occ. eigenvalues --  -38.45403 -38.44684 -38.44164 -38.43941 -38.43646
  Beta  occ. eigenvalues --  -38.43563 -38.41931  -2.21362  -2.20570  -2.20039
  Beta  occ. eigenvalues --   -2.19923  -2.19710  -2.19647  -2.18058  -1.15116
  Beta  occ. eigenvalues --   -1.15045  -1.14946  -1.14300  -1.14224  -1.14189
  Beta  occ. eigenvalues --   -1.13751  -1.13741  -1.13679  -1.13661  -1.13591
  Beta  occ. eigenvalues --   -1.13531  -1.13482  -1.13417  -1.13311  -1.13296
  Beta  occ. eigenvalues --   -1.13282  -1.13212  -1.11735  -1.11719  -1.11694
  Beta  occ. eigenvalues --   -0.18604  -0.15254  -0.10145
  Beta virt. eigenvalues --   -0.07370  -0.07001  -0.05307  -0.03899  -0.03275
  Beta virt. eigenvalues --   -0.02299  -0.01277  -0.01107  -0.00948  -0.00552
  Beta virt. eigenvalues --   -0.00305  -0.00078   0.00332   0.00377   0.00622

 Mulliken charges and spin densities:
               1          2
     1  Na  -0.124788   0.404897
     2  Na  -0.032781   0.128920
     3  Na   0.942945  -0.040276
     4  Na  -0.799468   0.357873
     5  Na  -1.533828   0.127599
     6  Na   0.953865   0.007485
     7  Na   0.594054   0.013501
 Sum of Mulliken charges =  -0.00000   1.00000

 Dipole moment (field-independent basis, Debye):
    X=              0.3538    Y=             -0.1847    Z=             -0.1557  Tot=              0.4284
 Quadrupole moment (field-independent basis, Debye-Ang):
   XX=            -75.5272   YY=            -65.7659   ZZ=            -64.8748
   XY=              1.4551   XZ=             -5.1567   YZ=              4.3577

 Normal termination of Gaussian 16 at Mon Nov 13 17:36:26 2023.
