 Gaussian 16, Revision B.01,
 Gaussian 16:  ES64L-G16RevB.01 20-Dec-2017

 -------------------------
 #P B3LYP/6-311+g(d) force
 -------------------------

 ------------------------------
 Gaussian input prepared by ASE
 ------------------------------
 Symbolic Z-matrix:
 Charge =  0 Multiplicity = 2

                         Standard orientation:
 ---------------------------------------------------------------------
 Center     Atomic      Atomic             Coordinates (Angstroms)
 Number     Number       Type             X           Y           Z
 ---------------------------------------------------------------------
      1         11           0        0.983737   -0.423396   -1.424538
      2         11           0        3.336567   -1.317092    0.201223
      3         11           0        1.262593    2.498418   -0.799076
      4         11           0        1.265552    0.482776    1.418436
      5         11           0       -1.696514    0.093659    1.750873
      6         11           0       -1.569010   -1.775858   -0.593454
      7         11           0       -3.582925    0.441492   -0.553465
 ---------------------------------------------------------------------

 SCF Done:  E(UB3LYP) =  -1136.09378773     A.U. after   27 cycles

 The electronic state is 2-A.
 Alpha  occ. eigenvalues --  -38.45914 -38.44852 -38.44093 -38.43997 -38.43565
 Alpha  occ. eigenvalues --  -38.43342 -38.43253  -2.21786  -2.20744  -2.20087
 Alpha  occ. eigenvalues --   -2.19960  -2.19644  -2.19348  -2.19256  -1.15493
 Alpha  occ. eigenvalues --   -1.15449  -1.15408  -1.14454  -1.14409  -1.14335
 Alpha  occ. eigenvalues --   -1.13851  -1.13789  -1.13705  -1.13682  -1.13591
 Alpha  occ. eigenvalues --   -1.13547  -1.13398  -1.13299  -1.13286  -1.13062
 Alpha  occ. eigenvalues --   -1.13029  -1.12954  -1.12905  -1.12850  -1.12812
 Alpha  occ. eigenvalues --   -0.19360  -0.14856  -0.11485  -0.11086
 Alpha virt. eigenvalues --   -0.07256  -0.04722  -0.04490  -0.03289  -0.02894
 Alpha virt. eigenvalues --   -0.02368  -0.02116  -0.00707  -0.00597   0.00013
 Alpha virt. eigenvalues --    0.00171   0.00256   0.00443   0.00766   0.00861

  Beta  occ. eigenvalues --  -38.45914 -38.44806 -38.44038 -38.44001 -38.43537
  Beta  occ. eigenvalues --  -38.43293 -38.43207  -2.21786  -2.20660  -2.19991
  Beta  occ. eigenvalues --   -2.19968  -2.19596  -2.19270  -2.19167  -1.15495
  Beta  occ. eigenvalues --   -1.15442  -1.15404  -1.14400  -1.14340  -1.14281
  Beta  occ. eigenvalues --   -1.13809  -1.13709  -1.13701  -1.13625  -1.13579
  Beta  occ. eigenvalues --   -1.13526  -1.13367  -1.13274  -1.13214  -1.12997
  Beta  occ. eigenvalues --   -1.12967  -1.12899  -1.12830  -1.12790  -1.12745
  Beta  occ. eigenvalues --   -0.18713  -0.14567  -0.10856
  Beta virt. eigenvalues --   -0.07479  -0.07042  -0.04560  -0.03984  -0.03021
  Beta virt. eigenvalues --   -0.02558  -0.01939  -0.01387  -0.00549  -0.00238
  Beta virt. eigenvalues --    0.00079   0.00238   0.00296   0.00523   0.00795

 Mulliken charges and spin densities:
               1          2
     1  Na  -0.127119   0.231906
     2  Na   0.601444   0.033070
     3  Na   0.101359   0.238274
     4  Na  -0.541408   0.193765
     5  Na  -0.092261  -0.045832
     6  Na  -0.256413   0.382401
     7  Na   0.314398  -0.033585
 Sum of Mulliken charges =  -0.00000   1.00000

 Dipole moment (field-independent basis, Debye):
    X=             -1.0827    Y=              0.3826    Z=             -0.2861  Tot=              1.1835
 Quadrupole moment (field-independent basis, Debye-Ang):
   XX=            -48.1298   YY=            -74.0048   ZZ=            -72.1988
   XY=             -3.1917   XZ=              2.7147   YZ=             -4.7012

 Normal termination of Gaussian 16 at Mon Nov 13 17:18:44 2023.
