 Gaussian 16, Revision B.01,
 Gaussian 16:  ES64L-G16RevB.01 20-Dec-2017

 -------------------------
 #P B3LYP/6-311+g(d) force
 -------------------------

 ------------------------------
 Gaussian input prepared by ASE
 ------------------------------
 Symbolic Z-matrix:
 Charge =  0 Multiplicity = 2

                         Standard orientation:
 ---------------------------------------------------------------------
 Center     Atomic      Atomic             Coordinates (Angstroms)
 Number     Number       Type             X           Y           Z
 ---------------------------------------------------------------------
      1         11           0        2.670754    1.208272   -0.892807
      2         11           0       -1.640215    1.829646    1.142496
      3         11           0       -5.443296   -0.461444   -0.705670
      4         11           0       -2.705159   -0.884329    0.440513
      5         11           0       -0.087523    0.043224   -0.699881
      6         11           0        2.205174   -1.270468    0.726023
      7         11           0        5.000265   -0.464901   -0.010673
 ---------------------------------------------------------------------

 SCF Done:  E(UB3LYP) =  -1136.09112029     A.U. after   26 cycles

 The electronic state is 2-A.
 Alpha  occ. eigenvalues --  -38.45362 -38.44842 -38.44245 -38.44117 -38.43653
 Alpha  occ. eigenvalues --  -38.43595 -38.43567  -2.21246  -2.20827  -2.20256
 Alpha  occ. eigenvalues --   -2.20021  -2.19660  -2.19634  -2.19396  -1.14969
 Alpha  occ. eigenvalues --   -1.14896  -1.14843  -1.14575  -1.14514  -1.14442
 Alpha  occ. eigenvalues --   -1.13977  -1.13928  -1.13884  -1.13673  -1.13647
 Alpha  occ. eigenvalues --   -1.13633  -1.13492  -1.13334  -1.13308  -1.13274
 Alpha  occ. eigenvalues --   -1.13259  -1.13232  -1.13047  -1.13042  -1.13009
 Alpha  occ. eigenvalues --   -0.18547  -0.15351  -0.11352  -0.10357
 Alpha virt. eigenvalues --   -0.07395  -0.05458  -0.04586  -0.03772  -0.02575
 Alpha virt. eigenvalues --   -0.02168  -0.01797  -0.01574  -0.00910  -0.00465
 Alpha virt. eigenvalues --   -0.00106   0.00285   0.00453   0.00551   0.00590

  Beta  occ. eigenvalues --  -38.45326 -38.44804 -38.44187 -38.44105 -38.43642
  Beta  occ. eigenvalues --  -38.43604 -38.43535  -2.21179  -2.20759  -2.20150
  Beta  occ. eigenvalues --   -2.20000  -2.19622  -2.19606  -2.19414  -1.14927
  Beta  occ. eigenvalues --   -1.14844  -1.14794  -1.14518  -1.14463  -1.14392
  Beta  occ. eigenvalues --   -1.13903  -1.13864  -1.13807  -1.13646  -1.13633
  Beta  occ. eigenvalues --   -1.13599  -1.13474  -1.13327  -1.13271  -1.13246
  Beta  occ. eigenvalues --   -1.13229  -1.13144  -1.13059  -1.13053  -1.13011
  Beta  occ. eigenvalues --   -0.17886  -0.15107  -0.11216
  Beta virt. eigenvalues --   -0.07156  -0.06608  -0.05156  -0.04099  -0.03583
  Beta virt. eigenvalues --   -0.02299  -0.01863  -0.01416  -0.01220  -0.00653
  Beta virt. eigenvalues --   -0.00220  -0.00055   0.00446   0.00567   0.00616

 Mulliken charges and spin densities:
               1          2
     1  Na   0.430643   0.182413
     2  Na   0.161259   0.074824
     3  Na   0.093116  -0.119877
     4  Na   0.289458  -0.240559
     5  Na  -1.183145   0.994240
     6  Na  -0.235206  -0.129236
     7  Na   0.443876   0.238196
 Sum of Mulliken charges =  -0.00000   1.00000

 Dipole moment (field-independent basis, Debye):
    X=              1.0735    Y=              0.7020    Z=              0.4033  Tot=              1.3445
 Quadrupole moment (field-independent basis, Debye-Ang):
   XX=            -64.7466   YY=            -72.8290   ZZ=            -64.7228
   XY=             -5.3125   XZ=              1.2127   YZ=              0.8810

 Normal termination of Gaussian 16 at Mon Nov 13 16:11:42 2023.
