 Gaussian 16, Revision B.01,
 Gaussian 16:  ES64L-G16RevB.01 20-Dec-2017

 -------------------------
 #P B3LYP/6-311+g(d) force
 -------------------------

 ------------------------------
 Gaussian input prepared by ASE
 ------------------------------
 Symbolic Z-matrix:
 Charge =  0 Multiplicity = 2

                         Standard orientation:
 ---------------------------------------------------------------------
 Center     Atomic      Atomic             Coordinates (Angstroms)
 Number     Number       Type             X           Y           Z
 ---------------------------------------------------------------------
      1         11           0       -0.032990   -0.294754   -1.900920
      2         11           0       -3.260229    2.416943    1.097842
      3         11           0       -2.812292    0.242120   -0.916298
      4         11           0       -1.353089   -2.209844   -0.003646
      5         11           0        0.801430   -1.576878    1.989174
      6         11           0        2.476756   -0.515563   -0.265962
      7         11           0        4.180415    1.937976   -0.000188
 ---------------------------------------------------------------------

 SCF Done:  E(UB3LYP) =  -1136.09772515     A.U. after   20 cycles

 The electronic state is 2-A.
 Alpha  occ. eigenvalues --  -38.45156 -38.44511 -38.44440 -38.44341 -38.44234
 Alpha  occ. eigenvalues --  -38.43680 -38.43573  -2.21145  -2.20427  -2.20295
 Alpha  occ. eigenvalues --   -2.20256  -2.20058  -2.19658  -2.19548  -1.14858
 Alpha  occ. eigenvalues --   -1.14797  -1.14756  -1.14162  -1.14114  -1.14064
 Alpha  occ. eigenvalues --   -1.14011  -1.13952  -1.13947  -1.13942  -1.13868
 Alpha  occ. eigenvalues --   -1.13830  -1.13756  -1.13685  -1.13685  -1.13370
 Alpha  occ. eigenvalues --   -1.13307  -1.13240  -1.13226  -1.13210  -1.13170
 Alpha  occ. eigenvalues --   -0.18629  -0.14147  -0.11984  -0.11556
 Alpha virt. eigenvalues --   -0.06866  -0.04995  -0.04484  -0.03745  -0.03124
 Alpha virt. eigenvalues --   -0.02452  -0.01842  -0.01294  -0.00558  -0.00285
 Alpha virt. eigenvalues --   -0.00079   0.00070   0.00330   0.00462   0.00671

  Beta  occ. eigenvalues --  -38.45072 -38.44534 -38.44419 -38.44274 -38.44173
  Beta  occ. eigenvalues --  -38.43670 -38.43565  -2.20992  -2.20396  -2.20339
  Beta  occ. eigenvalues --   -2.20130  -2.19944  -2.19642  -2.19543  -1.14745
  Beta  occ. eigenvalues --   -1.14706  -1.14644  -1.14110  -1.14098  -1.14039
  Beta  occ. eigenvalues --   -1.14020  -1.13978  -1.13972  -1.13866  -1.13784
  Beta  occ. eigenvalues --   -1.13756  -1.13684  -1.13607  -1.13606  -1.13334
  Beta  occ. eigenvalues --   -1.13288  -1.13244  -1.13213  -1.13211  -1.13117
  Beta  occ. eigenvalues --   -0.17941  -0.13842  -0.11579
  Beta virt. eigenvalues --   -0.07906  -0.06683  -0.04550  -0.04122  -0.03246
  Beta virt. eigenvalues --   -0.02602  -0.02063  -0.01718  -0.01180  -0.00407
  Beta virt. eigenvalues --   -0.00128   0.00145   0.00169   0.00424   0.00725

 Mulliken charges and spin densities:
               1          2
     1  Na   0.638943   0.304482
     2  Na   0.065847   0.293164
     3  Na  -0.477823  -0.153181
     4  Na   0.238231   0.296330
     5  Na   0.165458   0.305110
     6  Na  -0.824124   0.118415
     7  Na   0.193467  -0.164319
 Sum of Mulliken charges =  -0.00000   1.00000

 Dipole moment (field-independent basis, Debye):
    X=              0.3372    Y=              0.0612    Z=              0.5331  Tot=              0.6338
 Quadrupole moment (field-independent basis, Debye-Ang):
   XX=            -67.6291   YY=            -65.6299   ZZ=            -67.8269
   XY=              6.0899   XZ=              0.5881   YZ=              3.3429

 Normal termination of Gaussian 16 at Mon Nov 13 14:54:53 2023.
