 Gaussian 16, Revision B.01,
 Gaussian 16:  ES64L-G16RevB.01 20-Dec-2017

 -------------------------
 #P B3LYP/6-311+g(d) force
 -------------------------

 ------------------------------
 Gaussian input prepared by ASE
 ------------------------------
 Symbolic Z-matrix:
 Charge =  0 Multiplicity = 2

                         Standard orientation:
 ---------------------------------------------------------------------
 Center     Atomic      Atomic             Coordinates (Angstroms)
 Number     Number       Type             X           Y           Z
 ---------------------------------------------------------------------
      1         11           0        0.354501    2.155148   -0.046755
      2         11           0       -0.268213   -1.903471    0.371152
      3         11           0        4.261352   -0.387532   -0.419592
      4         11           0        1.413944   -0.199025   -0.954514
      5         11           0        0.341621    0.262135    1.933025
      6         11           0       -1.628113    0.314111   -0.477523
      7         11           0       -4.475092   -0.241367   -0.405792
 ---------------------------------------------------------------------

 SCF Done:  E(UB3LYP) =  -1136.05541879     A.U. after   34 cycles

 The electronic state is 2-A.
 Alpha  occ. eigenvalues --  -38.45897 -38.44957 -38.44641 -38.44496 -38.44130
 Alpha  occ. eigenvalues --  -38.44099 -38.43685  -2.22004  -2.20757  -2.20665
 Alpha  occ. eigenvalues --   -2.20444  -2.20366  -2.20235  -2.19928  -1.15852
 Alpha  occ. eigenvalues --   -1.15683  -1.15580  -1.14544  -1.14494  -1.14398
 Alpha  occ. eigenvalues --   -1.14381  -1.14360  -1.14287  -1.14246  -1.14209
 Alpha  occ. eigenvalues --   -1.14091  -1.14075  -1.14043  -1.13977  -1.13889
 Alpha  occ. eigenvalues --   -1.13752  -1.13669  -1.13645  -1.13523  -1.13394
 Alpha  occ. eigenvalues --   -0.20832  -0.13696  -0.12372  -0.11435
 Alpha virt. eigenvalues --   -0.07973  -0.04572  -0.03719  -0.03485  -0.02810
 Alpha virt. eigenvalues --   -0.02491  -0.02181  -0.01181  -0.00706  -0.00572
 Alpha virt. eigenvalues --    0.00188   0.00236   0.00615   0.00720   0.00851

  Beta  occ. eigenvalues --  -38.45791 -38.44967 -38.44662 -38.44417 -38.44096
  Beta  occ. eigenvalues --  -38.44051 -38.43661  -2.21819  -2.20776  -2.20527
  Beta  occ. eigenvalues --   -2.20484  -2.20308  -2.20151  -2.19888  -1.15738
  Beta  occ. eigenvalues --   -1.15505  -1.15452  -1.14532  -1.14457  -1.14409
  Beta  occ. eigenvalues --   -1.14393  -1.14293  -1.14211  -1.14170  -1.14134
  Beta  occ. eigenvalues --   -1.14117  -1.14099  -1.13985  -1.13917  -1.13857
  Beta  occ. eigenvalues --   -1.13667  -1.13618  -1.13595  -1.13465  -1.13373
  Beta  occ. eigenvalues --   -0.19911  -0.13604  -0.11293
  Beta virt. eigenvalues --   -0.08336  -0.07287  -0.04476  -0.03247  -0.02974
  Beta virt. eigenvalues --   -0.02622  -0.01662  -0.01415  -0.01169  -0.00544
  Beta virt. eigenvalues --   -0.00531   0.00207   0.00320   0.00646   0.00815

 Mulliken charges and spin densities:
               1          2
     1  Na  -0.169965   0.042806
     2  Na   0.550899   0.497975
     3  Na  -0.022713  -0.048347
     4  Na  -0.398954   0.047310
     5  Na  -0.621881   0.252207
     6  Na   0.883034   0.398472
     7  Na  -0.220420  -0.190423
 Sum of Mulliken charges =  -0.00000   1.00000

 Dipole moment (field-independent basis, Debye):
    X=             -0.0419    Y=              0.5552    Z=              1.3718  Tot=              1.4805
 Quadrupole moment (field-independent basis, Debye-Ang):
   XX=            -54.9319   YY=            -71.2964   ZZ=            -70.7953
   XY=              1.6802   XZ=              1.9331   YZ=             -2.1729

 Normal termination of Gaussian 16 at Mon Nov 13 19:37:43 2023.
