 Gaussian 16, Revision B.01,
 Gaussian 16:  ES64L-G16RevB.01 20-Dec-2017

 -------------------------
 #P B3LYP/6-311+g(d) force
 -------------------------

 ------------------------------
 Gaussian input prepared by ASE
 ------------------------------
 Symbolic Z-matrix:
 Charge =  0 Multiplicity = 2

                         Standard orientation:
 ---------------------------------------------------------------------
 Center     Atomic      Atomic             Coordinates (Angstroms)
 Number     Number       Type             X           Y           Z
 ---------------------------------------------------------------------
      1         11           0        1.035808   -0.793714    1.620072
      2         11           0        0.224330   -1.782240   -1.088163
      3         11           0       -1.840688   -1.421700    1.043451
      4         11           0       -2.783739    0.804490   -0.738951
      5         11           0        2.709733   -0.170269   -0.796886
      6         11           0        0.113842    1.201164   -1.429848
      7         11           0        0.540714    2.162269    1.390325
 ---------------------------------------------------------------------

 SCF Done:  E(UB3LYP) =  -1136.10925418     A.U. after   21 cycles

 The electronic state is 2-A.
 Alpha  occ. eigenvalues --  -38.44096 -38.43928 -38.43896 -38.43786 -38.43429
 Alpha  occ. eigenvalues --  -38.43404 -38.43270  -2.20097  -2.19898  -2.19830
 Alpha  occ. eigenvalues --   -2.19817  -2.19526  -2.19394  -2.19374  -1.13893
 Alpha  occ. eigenvalues --   -1.13809  -1.13707  -1.13663  -1.13633  -1.13558
 Alpha  occ. eigenvalues --   -1.13542  -1.13516  -1.13498  -1.13433  -1.13412
 Alpha  occ. eigenvalues --   -1.13381  -1.13279  -1.13237  -1.13119  -1.13049
 Alpha  occ. eigenvalues --   -1.13000  -1.12991  -1.12984  -1.12971  -1.12965
 Alpha  occ. eigenvalues --   -0.20328  -0.13463  -0.12723  -0.12010
 Alpha virt. eigenvalues --   -0.05365  -0.04338  -0.03970  -0.03636  -0.03462
 Alpha virt. eigenvalues --   -0.03204  -0.01274  -0.00429  -0.00337   0.00341
 Alpha virt. eigenvalues --    0.00599   0.00661   0.00927   0.00979   0.01049

  Beta  occ. eigenvalues --  -38.44073 -38.43920 -38.43845 -38.43720 -38.43391
  Beta  occ. eigenvalues --  -38.43386 -38.43225  -2.20061  -2.19816  -2.19781
  Beta  occ. eigenvalues --   -2.19726  -2.19461  -2.19363  -2.19295  -1.13863
  Beta  occ. eigenvalues --   -1.13754  -1.13674  -1.13583  -1.13552  -1.13536
  Beta  occ. eigenvalues --   -1.13532  -1.13449  -1.13430  -1.13419  -1.13342
  Beta  occ. eigenvalues --   -1.13307  -1.13227  -1.13180  -1.13071  -1.13005
  Beta  occ. eigenvalues --   -1.12975  -1.12946  -1.12936  -1.12923  -1.12893
  Beta  occ. eigenvalues --   -0.19481  -0.13219  -0.11833
  Beta virt. eigenvalues --   -0.08361  -0.05292  -0.04103  -0.03665  -0.03089
  Beta virt. eigenvalues --   -0.02876  -0.02116  -0.01196  -0.00333  -0.00136
  Beta virt. eigenvalues --    0.00377   0.00647   0.00716   0.00981   0.01007

 Mulliken charges and spin densities:
               1          2
     1  Na   0.152395   0.505528
     2  Na  -0.598941   0.329198
     3  Na   0.310356   0.035416
     4  Na  -0.192165  -0.029288
     5  Na   0.780621  -0.076168
     6  Na   0.112361   0.166227
     7  Na  -0.564627   0.069086
 Sum of Mulliken charges =  -0.00000   1.00000

 Dipole moment (field-independent basis, Debye):
    X=              0.0778    Y=              0.2600    Z=              0.1091  Tot=              0.2925
 Quadrupole moment (field-independent basis, Debye-Ang):
   XX=            -58.9850   YY=            -73.4060   ZZ=            -64.3626
   XY=             -0.2665   XZ=             -0.8103   YZ=              2.1605

 Normal termination of Gaussian 16 at Mon Nov 13 19:00:05 2023.
