 Gaussian 16, Revision B.01,
 Gaussian 16:  ES64L-G16RevB.01 20-Dec-2017

 -------------------------
 #P B3LYP/6-311+g(d) force
 -------------------------

 ------------------------------
 Gaussian input prepared by ASE
 ------------------------------
 Symbolic Z-matrix:
 Charge =  0 Multiplicity = 2

                         Standard orientation:
 ---------------------------------------------------------------------
 Center     Atomic      Atomic             Coordinates (Angstroms)
 Number     Number       Type             X           Y           Z
 ---------------------------------------------------------------------
      1         11           0        0.001953    0.848590   -0.480902
      2         11           0       -0.021875   -0.491958    2.210326
      3         11           0        2.828810    1.834272   -0.304373
      4         11           0        2.194969   -1.043960    0.263591
      5         11           0        0.018085   -1.930129   -1.609719
      6         11           0       -2.196512   -1.052635    0.219190
      7         11           0       -2.825431    1.835820   -0.298112
 ---------------------------------------------------------------------

 SCF Done:  E(UB3LYP) =  -1136.10074470     A.U. after   21 cycles

 The electronic state is 2-A.
 Alpha  occ. eigenvalues --  -38.44717 -38.43808 -38.43807 -38.43768 -38.43766
 Alpha  occ. eigenvalues --  -38.43490 -38.42911  -2.20720  -2.19847  -2.19845
 Alpha  occ. eigenvalues --   -2.19697  -2.19695  -2.19490  -2.19191  -1.14443
 Alpha  occ. eigenvalues --   -1.14387  -1.14284  -1.13637  -1.13620  -1.13556
 Alpha  occ. eigenvalues --   -1.13553  -1.13530  -1.13521  -1.13401  -1.13387
 Alpha  occ. eigenvalues --   -1.13314  -1.13312  -1.13284  -1.13283  -1.13202
 Alpha  occ. eigenvalues --   -1.13103  -1.13045  -1.12887  -1.12799  -1.12780
 Alpha  occ. eigenvalues --   -0.20127  -0.13991  -0.11915  -0.11775
 Alpha virt. eigenvalues --   -0.05620  -0.05294  -0.03698  -0.03653  -0.02672
 Alpha virt. eigenvalues --   -0.02562  -0.01655  -0.00893  -0.00246   0.00173
 Alpha virt. eigenvalues --    0.00272   0.00489   0.00777   0.00883   0.00916

  Beta  occ. eigenvalues --  -38.44602 -38.43810 -38.43809 -38.43752 -38.43751
  Beta  occ. eigenvalues --  -38.43432 -38.42879  -2.20508  -2.19825  -2.19823
  Beta  occ. eigenvalues --   -2.19701  -2.19700  -2.19384  -2.19142  -1.14307
  Beta  occ. eigenvalues --   -1.14233  -1.14138  -1.13627  -1.13606  -1.13547
  Beta  occ. eigenvalues --   -1.13540  -1.13462  -1.13460  -1.13400  -1.13387
  Beta  occ. eigenvalues --   -1.13307  -1.13306  -1.13283  -1.13282  -1.13131
  Beta  occ. eigenvalues --   -1.13033  -1.12976  -1.12822  -1.12754  -1.12737
  Beta  occ. eigenvalues --   -0.19281  -0.13740  -0.11617
  Beta virt. eigenvalues --   -0.07718  -0.05522  -0.05161  -0.03281  -0.02852
  Beta virt. eigenvalues --   -0.02055  -0.01751  -0.01591  -0.00841  -0.00018
  Beta virt. eigenvalues --    0.00186   0.00335   0.00500   0.00791   0.00916

 Mulliken charges and spin densities:
               1          2
     1  Na  -1.688785   0.544695
     2  Na  -0.566164   0.068340
     3  Na  -0.303852  -0.112971
     4  Na   1.552837   0.387341
     5  Na  -0.356778  -0.162947
     6  Na   1.586232   0.393033
     7  Na  -0.223490  -0.117492
 Sum of Mulliken charges =  -0.00000   1.00000

 Dipole moment (field-independent basis, Debye):
    X=             -0.0061    Y=             -0.1601    Z=              0.2337  Tot=              0.2834
 Quadrupole moment (field-independent basis, Debye-Ang):
   XX=            -56.7131   YY=            -69.2906   ZZ=            -68.0583
   XY=             -0.0333   XZ=             -0.0248   YZ=              0.0211

 Normal termination of Gaussian 16 at Mon Nov 13 16:23:58 2023.
