 Gaussian 16, Revision B.01,
 Gaussian 16:  ES64L-G16RevB.01 20-Dec-2017

 -------------------------
 #P B3LYP/6-311+g(d) force
 -------------------------

 ------------------------------
 Gaussian input prepared by ASE
 ------------------------------
 Symbolic Z-matrix:
 Charge =  0 Multiplicity = 2

                         Standard orientation:
 ---------------------------------------------------------------------
 Center     Atomic      Atomic             Coordinates (Angstroms)
 Number     Number       Type             X           Y           Z
 ---------------------------------------------------------------------
      1         11           0        0.354005   -1.476169   -0.162837
      2         11           0       -2.121354   -1.035790   -1.256967
      3         11           0        3.237031   -1.135683    0.087903
      4         11           0        2.746965    1.732240   -0.047921
      5         11           0       -0.082219    1.213728   -0.500997
      6         11           0       -2.748289    1.236616    0.143779
      7         11           0       -1.386139   -0.534941    1.737040
 ---------------------------------------------------------------------

 SCF Done:  E(UB3LYP) =  -1136.06414333     A.U. after   27 cycles

 The electronic state is 2-A.
 Alpha  occ. eigenvalues --  -38.45690 -38.45118 -38.44557 -38.44434 -38.44328
 Alpha  occ. eigenvalues --  -38.44008 -38.43451  -2.21585  -2.21235  -2.20703
 Alpha  occ. eigenvalues --   -2.20477  -2.20345  -2.20211  -2.19658  -1.15295
 Alpha  occ. eigenvalues --   -1.15277  -1.15211  -1.15139  -1.14954  -1.14921
 Alpha  occ. eigenvalues --   -1.14534  -1.14317  -1.14265  -1.14243  -1.14139
 Alpha  occ. eigenvalues --   -1.14073  -1.14025  -1.14004  -1.13973  -1.13961
 Alpha  occ. eigenvalues --   -1.13804  -1.13752  -1.13281  -1.13246  -1.13198
 Alpha  occ. eigenvalues --   -0.20795  -0.15346  -0.11544  -0.11290
 Alpha virt. eigenvalues --   -0.07312  -0.05662  -0.03829  -0.03331  -0.02704
 Alpha virt. eigenvalues --   -0.02072  -0.01947  -0.00957  -0.00354  -0.00068
 Alpha virt. eigenvalues --    0.00121   0.00384   0.00655   0.00724   0.00846

  Beta  occ. eigenvalues --  -38.45702 -38.45082 -38.44490 -38.44440 -38.44235
  Beta  occ. eigenvalues --  -38.43985 -38.43420  -2.21609  -2.21180  -2.20587
  Beta  occ. eigenvalues --   -2.20355  -2.20308  -2.20179  -2.19610  -1.15314
  Beta  occ. eigenvalues --   -1.15294  -1.15221  -1.15108  -1.14904  -1.14822
  Beta  occ. eigenvalues --   -1.14456  -1.14222  -1.14169  -1.14155  -1.14133
  Beta  occ. eigenvalues --   -1.14011  -1.13974  -1.13960  -1.13942  -1.13889
  Beta  occ. eigenvalues --   -1.13762  -1.13691  -1.13260  -1.13177  -1.13129
  Beta  occ. eigenvalues --   -0.19943  -0.15186  -0.11278
  Beta virt. eigenvalues --   -0.07082  -0.06957  -0.05647  -0.03317  -0.03190
  Beta virt. eigenvalues --   -0.02634  -0.01283  -0.01101  -0.00844  -0.00027
  Beta virt. eigenvalues --    0.00033   0.00212   0.00376   0.00759   0.00838

 Mulliken charges and spin densities:
               1          2
     1  Na   0.074095   0.296768
     2  Na   0.111107   0.071679
     3  Na   0.319097  -0.181070
     4  Na  -0.194327   0.092690
     5  Na  -0.983453   0.357465
     6  Na   1.252048  -0.007286
     7  Na  -0.578567   0.369754
 Sum of Mulliken charges =  -0.00000   1.00000

 Dipole moment (field-independent basis, Debye):
    X=              0.7844    Y=             -0.3271    Z=              0.2033  Tot=              0.8738
 Quadrupole moment (field-independent basis, Debye-Ang):
   XX=            -45.0912   YY=            -75.9704   ZZ=            -73.0980
   XY=             -0.9816   XZ=              1.6107   YZ=              1.0568

 Normal termination of Gaussian 16 at Mon Nov 13 18:15:04 2023.
