 Gaussian 16, Revision B.01,
 Gaussian 16:  ES64L-G16RevB.01 20-Dec-2017

 -------------------------
 #P B3LYP/6-311+g(d) force
 -------------------------

 ------------------------------
 Gaussian input prepared by ASE
 ------------------------------
 Symbolic Z-matrix:
 Charge =  0 Multiplicity = 2

                         Standard orientation:
 ---------------------------------------------------------------------
 Center     Atomic      Atomic             Coordinates (Angstroms)
 Number     Number       Type             X           Y           Z
 ---------------------------------------------------------------------
      1         11           0        1.054120   -2.399128   -1.081803
      2         11           0        2.291157   -0.181328    2.335780
      3         11           0       -4.947932   -0.052048    0.836468
      4         11           0       -2.618275    0.159909   -1.033957
      5         11           0        0.040668    0.033951    0.354681
      6         11           0        2.870449   -0.057651   -0.605998
      7         11           0        1.309813    2.496296   -0.805171
 ---------------------------------------------------------------------

 SCF Done:  E(UB3LYP) =  -1136.09095804     A.U. after   28 cycles

 The electronic state is 2-A.
 Alpha  occ. eigenvalues --  -38.45467 -38.45110 -38.44857 -38.44334 -38.44174
 Alpha  occ. eigenvalues --  -38.42546 -38.42520  -2.21270  -2.21031  -2.20937
 Alpha  occ. eigenvalues --   -2.20350  -2.20204  -2.18463  -2.18439  -1.14956
 Alpha  occ. eigenvalues --   -1.14907  -1.14902  -1.14822  -1.14739  -1.14671
 Alpha  occ. eigenvalues --   -1.14574  -1.14537  -1.14532  -1.14151  -1.14028
 Alpha  occ. eigenvalues --   -1.13958  -1.13854  -1.13842  -1.13813  -1.12173
 Alpha  occ. eigenvalues --   -1.12147  -1.12123  -1.12096  -1.12054  -1.12029
 Alpha  occ. eigenvalues --   -0.19000  -0.14273  -0.11492  -0.11123
 Alpha virt. eigenvalues --   -0.07640  -0.04764  -0.03622  -0.03276  -0.02857
 Alpha virt. eigenvalues --   -0.02434  -0.02218  -0.01469  -0.00863  -0.00276
 Alpha virt. eigenvalues --   -0.00046  -0.00029   0.00179   0.00636   0.00845

  Beta  occ. eigenvalues --  -38.45435 -38.44998 -38.44850 -38.44332 -38.44148
  Beta  occ. eigenvalues --  -38.42526 -38.42498  -2.21209  -2.20932  -2.20822
  Beta  occ. eigenvalues --   -2.20314  -2.20205  -2.18429  -2.18400  -1.14917
  Beta  occ. eigenvalues --   -1.14864  -1.14860  -1.14751  -1.14639  -1.14588
  Beta  occ. eigenvalues --   -1.14554  -1.14443  -1.14422  -1.14105  -1.13967
  Beta  occ. eigenvalues --   -1.13942  -1.13847  -1.13817  -1.13810  -1.12148
  Beta  occ. eigenvalues --   -1.12120  -1.12101  -1.12073  -1.12020  -1.11993
  Beta  occ. eigenvalues --   -0.18235  -0.13883  -0.10919
  Beta virt. eigenvalues --   -0.07800  -0.07138  -0.04324  -0.03323  -0.03193
  Beta virt. eigenvalues --   -0.02725  -0.01765  -0.01727  -0.00793  -0.00719
  Beta virt. eigenvalues --   -0.00134  -0.00015   0.00111   0.00302   0.00703

 Mulliken charges and spin densities:
               1          2
     1  Na  -0.509127  -0.170200
     2  Na   0.816015   0.403228
     3  Na  -0.017943   0.133575
     4  Na   0.511998  -0.016198
     5  Na  -2.172337   0.375465
     6  Na   1.730052   0.440678
     7  Na  -0.358657  -0.166547
 Sum of Mulliken charges =  -0.00000   1.00000

 Dipole moment (field-independent basis, Debye):
    X=             -1.0059    Y=             -0.1209    Z=              0.6656  Tot=              1.2123
 Quadrupole moment (field-independent basis, Debye-Ang):
   XX=            -49.2999   YY=            -78.2671   ZZ=            -64.3130
   XY=              0.2315   XZ=             -4.6521   YZ=             -0.9149

 Normal termination of Gaussian 16 at Mon Nov 13 17:52:59 2023.
