 Gaussian 16, Revision B.01,
 Gaussian 16:  ES64L-G16RevB.01 20-Dec-2017

 -------------------------
 #P B3LYP/6-311+g(d) force
 -------------------------

 ------------------------------
 Gaussian input prepared by ASE
 ------------------------------
 Symbolic Z-matrix:
 Charge =  0 Multiplicity = 2

                         Standard orientation:
 ---------------------------------------------------------------------
 Center     Atomic      Atomic             Coordinates (Angstroms)
 Number     Number       Type             X           Y           Z
 ---------------------------------------------------------------------
      1         11           0        2.660500    0.453081   -1.069818
      2         11           0        1.484644   -2.302345   -0.987787
      3         11           0        2.332936    0.958992    1.866419
      4         11           0       -0.002718    0.005898    0.233427
      5         11           0       -2.281431   -1.215736    1.761703
      6         11           0       -2.684237   -0.317057   -1.068468
      7         11           0       -1.509694    2.417167   -0.735477
 ---------------------------------------------------------------------

 SCF Done:  E(UB3LYP) =  -1136.09988734     A.U. after   24 cycles

 The electronic state is 2-A.
 Alpha  occ. eigenvalues --  -38.44499 -38.44400 -38.44366 -38.44319 -38.43414
 Alpha  occ. eigenvalues --  -38.43180 -38.42719  -2.20406  -2.20379  -2.20349
 Alpha  occ. eigenvalues --   -2.20219  -2.19314  -2.19079  -2.19023  -1.14209
 Alpha  occ. eigenvalues --   -1.14127  -1.14107  -1.14078  -1.14060  -1.14006
 Alpha  occ. eigenvalues --   -1.13971  -1.13964  -1.13927  -1.13908  -1.13803
 Alpha  occ. eigenvalues --   -1.13800  -1.13065  -1.12947  -1.12924  -1.12862
 Alpha  occ. eigenvalues --   -1.12733  -1.12718  -1.12693  -1.12679  -1.12554
 Alpha  occ. eigenvalues --   -0.18990  -0.14502  -0.11376  -0.11276
 Alpha virt. eigenvalues --   -0.05868  -0.05108  -0.04546  -0.03257  -0.02645
 Alpha virt. eigenvalues --   -0.02257  -0.01723  -0.00868  -0.00610   0.00220
 Alpha virt. eigenvalues --    0.00242   0.00433   0.00566   0.00803   0.00854

  Beta  occ. eigenvalues --  -38.44436 -38.44384 -38.44353 -38.44265 -38.43384
  Beta  occ. eigenvalues --  -38.43160 -38.42694  -2.20359  -2.20329  -2.20284
  Beta  occ. eigenvalues --   -2.20118  -2.19262  -2.19046  -2.18987  -1.14169
  Beta  occ. eigenvalues --   -1.14101  -1.14066  -1.14018  -1.13998  -1.13985
  Beta  occ. eigenvalues --   -1.13955  -1.13902  -1.13866  -1.13835  -1.13744
  Beta  occ. eigenvalues --   -1.13735  -1.13035  -1.12900  -1.12889  -1.12836
  Beta  occ. eigenvalues --   -1.12688  -1.12679  -1.12664  -1.12613  -1.12548
  Beta  occ. eigenvalues --   -0.18347  -0.14147  -0.10935
  Beta virt. eigenvalues --   -0.07646  -0.05681  -0.04413  -0.04334  -0.03109
  Beta virt. eigenvalues --   -0.02224  -0.01587  -0.01565  -0.00519  -0.00363
  Beta virt. eigenvalues --    0.00329   0.00381   0.00546   0.00557   0.00891

 Mulliken charges and spin densities:
               1          2
     1  Na   0.565647  -0.210957
     2  Na   0.241713  -0.038975
     3  Na   0.492971  -0.029640
     4  Na  -2.593124   1.726125
     5  Na   0.501298  -0.124948
     6  Na   0.577213  -0.205838
     7  Na   0.214281  -0.115766
 Sum of Mulliken charges =  -0.00000   1.00000

 Dipole moment (field-independent basis, Debye):
    X=              0.1083    Y=             -0.0680    Z=              0.1370  Tot=              0.1874
 Quadrupole moment (field-independent basis, Debye-Ang):
   XX=            -55.8646   YY=            -72.7253   ZZ=            -64.9463
   XY=              2.4355   XZ=              0.1672   YZ=              0.0167

 Normal termination of Gaussian 16 at Mon Nov 13 20:10:13 2023.
