 Gaussian 16, Revision B.01,
 Gaussian 16:  ES64L-G16RevB.01 20-Dec-2017

 -------------------------
 #P B3LYP/6-311+g(d) force
 -------------------------

 ------------------------------
 Gaussian input prepared by ASE
 ------------------------------
 Symbolic Z-matrix:
 Charge =  0 Multiplicity = 2

                         Standard orientation:
 ---------------------------------------------------------------------
 Center     Atomic      Atomic             Coordinates (Angstroms)
 Number     Number       Type             X           Y           Z
 ---------------------------------------------------------------------
      1         11           0       -0.750709   -1.048101    0.857825
      2         11           0        1.526206    0.743602    1.662057
      3         11           0        3.402633   -0.970506    0.070333
      4         11           0        0.933894   -0.973710   -1.631588
      5         11           0        0.653241    1.941755   -0.952457
      6         11           0       -2.151419    1.457019   -0.005721
      7         11           0       -3.613845   -1.150058   -0.000449
 ---------------------------------------------------------------------

 SCF Done:  E(UB3LYP) =  -1136.10186720     A.U. after   24 cycles

 The electronic state is 2-A.
 Alpha  occ. eigenvalues --  -38.44793 -38.44346 -38.44268 -38.44258 -38.44045
 Alpha  occ. eigenvalues --  -38.43852 -38.42460  -2.20689  -2.20340  -2.20272
 Alpha  occ. eigenvalues --   -2.20236  -2.20076  -2.19847  -2.18489  -1.14408
 Alpha  occ. eigenvalues --   -1.14399  -1.14305  -1.14149  -1.14129  -1.14048
 Alpha  occ. eigenvalues --   -1.13939  -1.13918  -1.13883  -1.13852  -1.13850
 Alpha  occ. eigenvalues --   -1.13830  -1.13726  -1.13703  -1.13646  -1.13530
 Alpha  occ. eigenvalues --   -1.13498  -1.13453  -1.12169  -1.12142  -1.12110
 Alpha  occ. eigenvalues --   -0.19923  -0.14646  -0.11576  -0.11395
 Alpha virt. eigenvalues --   -0.07098  -0.04902  -0.04010  -0.03238  -0.02777
 Alpha virt. eigenvalues --   -0.02520  -0.02298  -0.01036  -0.00368   0.00064
 Alpha virt. eigenvalues --    0.00181   0.00377   0.00543   0.00857   0.00900

  Beta  occ. eigenvalues --  -38.44785 -38.44352 -38.44239 -38.44177 -38.43967
  Beta  occ. eigenvalues --  -38.43852 -38.42434  -2.20678  -2.20294  -2.20246
  Beta  occ. eigenvalues --   -2.20125  -2.19932  -2.19849  -2.18445  -1.14394
  Beta  occ. eigenvalues --   -1.14361  -1.14296  -1.14122  -1.14065  -1.14006
  Beta  occ. eigenvalues --   -1.13942  -1.13859  -1.13833  -1.13811  -1.13773
  Beta  occ. eigenvalues --   -1.13743  -1.13626  -1.13622  -1.13545  -1.13530
  Beta  occ. eigenvalues --   -1.13483  -1.13455  -1.12138  -1.12106  -1.12055
  Beta  occ. eigenvalues --   -0.19165  -0.14444  -0.11215
  Beta virt. eigenvalues --   -0.07410  -0.06883  -0.04845  -0.03295  -0.03076
  Beta virt. eigenvalues --   -0.02577  -0.01869  -0.01481  -0.00883  -0.00082
  Beta virt. eigenvalues --    0.00108   0.00182   0.00448   0.00699   0.00876

 Mulliken charges and spin densities:
               1          2
     1  Na  -0.507364   0.235609
     2  Na   0.203867   0.408223
     3  Na   0.279390  -0.099497
     4  Na  -0.282811   0.413244
     5  Na  -0.002783   0.129244
     6  Na  -0.297023  -0.003544
     7  Na   0.606724  -0.083279
 Sum of Mulliken charges =  -0.00000   1.00000

 Dipole moment (field-independent basis, Debye):
    X=             -0.0283    Y=              0.1055    Z=             -0.1737  Tot=              0.2052
 Quadrupole moment (field-independent basis, Debye-Ang):
   XX=            -49.3195   YY=            -75.0928   ZZ=            -71.0402
   XY=              0.0956   XZ=              1.7121   YZ=              0.9642

 Normal termination of Gaussian 16 at Mon Nov 13 15:55:55 2023.
