 Gaussian 16, Revision B.01,
 Gaussian 16:  ES64L-G16RevB.01 20-Dec-2017

 -------------------------
 #P B3LYP/6-311+g(d) force
 -------------------------

 ------------------------------
 Gaussian input prepared by ASE
 ------------------------------
 Symbolic Z-matrix:
 Charge =  0 Multiplicity = 2

                         Standard orientation:
 ---------------------------------------------------------------------
 Center     Atomic      Atomic             Coordinates (Angstroms)
 Number     Number       Type             X           Y           Z
 ---------------------------------------------------------------------
      1         11           0       -1.362887   -0.329920    1.423584
      2         11           0       -0.503714    2.416028    0.579964
      3         11           0       -3.734284   -1.403197   -0.067460
      4         11           0       -1.946149    0.634519   -1.353126
      5         11           0        0.875993    0.003808   -0.546694
      6         11           0        3.739742    0.781606   -0.083829
      7         11           0        2.931299   -2.102844    0.047561
 ---------------------------------------------------------------------

 SCF Done:  E(UB3LYP) =  -1136.09115045     A.U. after   27 cycles

 The electronic state is 2-A.
 Alpha  occ. eigenvalues --  -38.45977 -38.44766 -38.43934 -38.43410 -38.43379
 Alpha  occ. eigenvalues --  -38.43131 -38.42850  -2.21852  -2.20653  -2.20111
 Alpha  occ. eigenvalues --   -2.19511  -2.19279  -2.19237  -2.18852  -1.15562
 Alpha  occ. eigenvalues --   -1.15500  -1.15477  -1.14383  -1.14301  -1.14268
 Alpha  occ. eigenvalues --   -1.13873  -1.13787  -1.13742  -1.13271  -1.13198
 Alpha  occ. eigenvalues --   -1.13176  -1.13027  -1.12916  -1.12899  -1.12888
 Alpha  occ. eigenvalues --   -1.12874  -1.12770  -1.12511  -1.12487  -1.12463
 Alpha  occ. eigenvalues --   -0.19241  -0.15171  -0.11531  -0.10168
 Alpha virt. eigenvalues --   -0.07189  -0.05641  -0.03752  -0.03678  -0.02683
 Alpha virt. eigenvalues --   -0.01869  -0.01756  -0.01188  -0.00638  -0.00300
 Alpha virt. eigenvalues --   -0.00104   0.00198   0.00566   0.00628   0.00718

  Beta  occ. eigenvalues --  -38.45968 -38.44765 -38.43909 -38.43370 -38.43350
  Beta  occ. eigenvalues --  -38.43059 -38.42836  -2.21835  -2.20652  -2.20076
  Beta  occ. eigenvalues --   -2.19402  -2.19264  -2.19109  -2.18833  -1.15552
  Beta  occ. eigenvalues --   -1.15487  -1.15462  -1.14382  -1.14302  -1.14255
  Beta  occ. eigenvalues --   -1.13852  -1.13736  -1.13681  -1.13204  -1.13129
  Beta  occ. eigenvalues --   -1.13104  -1.12979  -1.12896  -1.12849  -1.12825
  Beta  occ. eigenvalues --   -1.12795  -1.12684  -1.12495  -1.12479  -1.12400
  Beta  occ. eigenvalues --   -0.18565  -0.14958  -0.11274
  Beta virt. eigenvalues --   -0.06982  -0.06240  -0.05476  -0.03696  -0.03217
  Beta virt. eigenvalues --   -0.02542  -0.01425  -0.01174  -0.00696  -0.00574
  Beta virt. eigenvalues --   -0.00053   0.00062   0.00242   0.00679   0.00710

 Mulliken charges and spin densities:
               1          2
     1  Na  -0.531939   0.238940
     2  Na   0.239241   0.105489
     3  Na   0.221194   0.045289
     4  Na  -0.100103   0.296758
     5  Na  -0.624364   0.428903
     6  Na   0.385882  -0.045381
     7  Na   0.410090  -0.069998
 Sum of Mulliken charges =  -0.00000   1.00000

 Dipole moment (field-independent basis, Debye):
    X=              2.3737    Y=              0.2955    Z=              0.5558  Tot=              2.4558
 Quadrupole moment (field-independent basis, Debye-Ang):
   XX=            -53.6776   YY=            -64.5826   ZZ=            -75.4958
   XY=              0.9617   XZ=              0.1315   YZ=              2.3970

 Normal termination of Gaussian 16 at Mon Nov 13 17:49:53 2023.
