 Gaussian 16, Revision B.01,
 Gaussian 16:  ES64L-G16RevB.01 20-Dec-2017

 -------------------------
 #P B3LYP/6-311+g(d) force
 -------------------------

 ------------------------------
 Gaussian input prepared by ASE
 ------------------------------
 Symbolic Z-matrix:
 Charge =  0 Multiplicity = 2

                         Standard orientation:
 ---------------------------------------------------------------------
 Center     Atomic      Atomic             Coordinates (Angstroms)
 Number     Number       Type             X           Y           Z
 ---------------------------------------------------------------------
      1         11           0        0.185003    0.028527   -1.374786
      2         11           0       -0.694979    0.652227    1.561407
      3         11           0        1.727101    1.754691    0.386233
      4         11           0        2.791988   -0.806016   -0.443206
      5         11           0       -2.011547    1.491543   -0.678145
      6         11           0        0.294768   -1.734040    0.696943
      7         11           0       -2.292335   -1.386932   -0.148447
 ---------------------------------------------------------------------

 SCF Done:  E(UB3LYP) =  -1136.07422863     A.U. after   20 cycles

 The electronic state is 2-A.
 Alpha  occ. eigenvalues --  -38.44444 -38.44155 -38.43937 -38.43867 -38.43865
 Alpha  occ. eigenvalues --  -38.43608 -38.43466  -2.20473  -2.20295  -2.20227
 Alpha  occ. eigenvalues --   -2.20193  -2.19965  -2.19695  -2.19656  -1.14412
 Alpha  occ. eigenvalues --   -1.14336  -1.14172  -1.14152  -1.14137  -1.14082
 Alpha  occ. eigenvalues --   -1.13967  -1.13946  -1.13864  -1.13816  -1.13735
 Alpha  occ. eigenvalues --   -1.13665  -1.13619  -1.13556  -1.13535  -1.13309
 Alpha  occ. eigenvalues --   -1.13292  -1.13269  -1.13234  -1.13225  -1.13176
 Alpha  occ. eigenvalues --   -0.21406  -0.14579  -0.12272  -0.11871
 Alpha virt. eigenvalues --   -0.05790  -0.04657  -0.03899  -0.03545  -0.02646
 Alpha virt. eigenvalues --   -0.02364  -0.01587  -0.00639  -0.00094   0.00307
 Alpha virt. eigenvalues --    0.00602   0.00702   0.00912   0.01007   0.01098

  Beta  occ. eigenvalues --  -38.44433 -38.44129 -38.43855 -38.43855 -38.43796
  Beta  occ. eigenvalues --  -38.43594 -38.43432  -2.20456  -2.20227  -2.20122
  Beta  occ. eigenvalues --   -2.20057  -2.19948  -2.19643  -2.19635  -1.14361
  Beta  occ. eigenvalues --   -1.14291  -1.14145  -1.14102  -1.14087  -1.14026
  Beta  occ. eigenvalues --   -1.13906  -1.13860  -1.13828  -1.13726  -1.13688
  Beta  occ. eigenvalues --   -1.13589  -1.13548  -1.13528  -1.13495  -1.13291
  Beta  occ. eigenvalues --   -1.13237  -1.13232  -1.13209  -1.13157  -1.13126
  Beta  occ. eigenvalues --   -0.20619  -0.14234  -0.11993
  Beta virt. eigenvalues --   -0.07608  -0.05735  -0.04657  -0.03487  -0.02992
  Beta virt. eigenvalues --   -0.01878  -0.01493  -0.01256  -0.00613   0.00093
  Beta virt. eigenvalues --    0.00351   0.00609   0.00681   0.00941   0.01009

 Mulliken charges and spin densities:
               1          2
     1  Na  -1.307613   0.201042
     2  Na  -0.355773   0.286055
     3  Na  -0.042117   0.089641
     4  Na   0.678547   0.039738
     5  Na   0.386647   0.040556
     6  Na   0.444793   0.239940
     7  Na   0.195517   0.103028
 Sum of Mulliken charges =  -0.00000   1.00000

 Dipole moment (field-independent basis, Debye):
    X=              0.1843    Y=              0.2076    Z=             -0.0064  Tot=              0.2777
 Quadrupole moment (field-independent basis, Debye-Ang):
   XX=            -53.3248   YY=            -71.3494   ZZ=            -70.6603
   XY=              0.2338   XZ=              0.7688   YZ=              0.0632

 Normal termination of Gaussian 16 at Mon Nov 13 19:21:41 2023.
