 Gaussian 16, Revision B.01,
 Gaussian 16:  ES64L-G16RevB.01 20-Dec-2017

 -------------------------
 #P B3LYP/6-311+g(d) force
 -------------------------

 ------------------------------
 Gaussian input prepared by ASE
 ------------------------------
 Symbolic Z-matrix:
 Charge =  0 Multiplicity = 2

                         Standard orientation:
 ---------------------------------------------------------------------
 Center     Atomic      Atomic             Coordinates (Angstroms)
 Number     Number       Type             X           Y           Z
 ---------------------------------------------------------------------
      1         11           0        2.094290   -0.283339    1.644459
      2         11           0        1.491709   -1.976845   -0.422134
      3         11           0       -5.133117    0.513993   -0.377326
      4         11           0       -2.722890   -0.769470    0.593890
      5         11           0       -0.179767    0.189984   -0.428736
      6         11           0        2.799626    0.245253   -1.343399
      7         11           0        1.650149    2.080425    0.333247
 ---------------------------------------------------------------------

 SCF Done:  E(UB3LYP) =  -1136.05529223     A.U. after   31 cycles

 The electronic state is 2-A.
 Alpha  occ. eigenvalues --  -38.45789 -38.45618 -38.45517 -38.44457 -38.44456
 Alpha  occ. eigenvalues --  -38.43133 -38.43116  -2.21931  -2.21745  -2.21431
 Alpha  occ. eigenvalues --   -2.20633  -2.20359  -2.19263  -2.19246  -1.15739
 Alpha  occ. eigenvalues --   -1.15638  -1.15538  -1.15515  -1.15450  -1.15346
 Alpha  occ. eigenvalues --   -1.15151  -1.15064  -1.15056  -1.14377  -1.14328
 Alpha  occ. eigenvalues --   -1.14237  -1.14080  -1.13981  -1.13962  -1.12965
 Alpha  occ. eigenvalues --   -1.12943  -1.12899  -1.12869  -1.12838  -1.12811
 Alpha  occ. eigenvalues --   -0.20527  -0.14719  -0.11612  -0.11247
 Alpha virt. eigenvalues --   -0.08341  -0.04788  -0.03446  -0.03370  -0.03015
 Alpha virt. eigenvalues --   -0.02154  -0.02056  -0.01556  -0.01110  -0.00230
 Alpha virt. eigenvalues --    0.00050   0.00105   0.00322   0.00548   0.00887

  Beta  occ. eigenvalues --  -38.45739 -38.45594 -38.45490 -38.44452 -38.44372
  Beta  occ. eigenvalues --  -38.43112 -38.43094  -2.21845  -2.21706  -2.21387
  Beta  occ. eigenvalues --   -2.20479  -2.20355  -2.19232  -2.19214  -1.15697
  Beta  occ. eigenvalues --   -1.15566  -1.15494  -1.15441  -1.15421  -1.15256
  Beta  occ. eigenvalues --   -1.15123  -1.15033  -1.15025  -1.14285  -1.14206
  Beta  occ. eigenvalues --   -1.14129  -1.14069  -1.13972  -1.13955  -1.12954
  Beta  occ. eigenvalues --   -1.12925  -1.12882  -1.12853  -1.12756  -1.12729
  Beta  occ. eigenvalues --   -0.19713  -0.14468  -0.11136
  Beta virt. eigenvalues --   -0.08066  -0.07277  -0.04480  -0.03337  -0.03169
  Beta virt. eigenvalues --   -0.02951  -0.01521  -0.01318  -0.01222  -0.00595
  Beta virt. eigenvalues --   -0.00096   0.00089   0.00148   0.00447   0.00610

 Mulliken charges and spin densities:
               1          2
     1  Na  -0.513910   0.189055
     2  Na   0.564873  -0.006910
     3  Na   0.291663   0.146677
     4  Na   0.110638  -0.073726
     5  Na  -1.180139   0.770337
     6  Na   0.123564   0.107212
     7  Na   0.603312  -0.132644
 Sum of Mulliken charges =  -0.00000   1.00000

 Dipole moment (field-independent basis, Debye):
    X=             -1.2851    Y=              0.0390    Z=              0.4762  Tot=              1.3711
 Quadrupole moment (field-independent basis, Debye-Ang):
   XX=            -48.6517   YY=            -77.4115   ZZ=            -68.2339
   XY=             -4.5100   XZ=              5.1301   YZ=             -2.8600

 Normal termination of Gaussian 16 at Mon Nov 13 18:14:14 2023.
