 Gaussian 16, Revision B.01,
 Gaussian 16:  ES64L-G16RevB.01 20-Dec-2017

 -------------------------
 #P B3LYP/6-311+g(d) force
 -------------------------

 ------------------------------
 Gaussian input prepared by ASE
 ------------------------------
 Symbolic Z-matrix:
 Charge =  0 Multiplicity = 2

                         Standard orientation:
 ---------------------------------------------------------------------
 Center     Atomic      Atomic             Coordinates (Angstroms)
 Number     Number       Type             X           Y           Z
 ---------------------------------------------------------------------
      1         11           0        1.474898    0.092717    1.709586
      2         11           0        0.342521   -2.051594    0.301978
      3         11           0       -4.176515   -0.063755   -0.259529
      4         11           0       -1.505904    0.378777    0.833277
      5         11           0        0.874747    2.102241   -0.150737
      6         11           0        0.205062   -0.119318   -1.728062
      7         11           0        2.785190   -0.339068   -0.706514
 ---------------------------------------------------------------------

 SCF Done:  E(UB3LYP) =  -1136.07527553     A.U. after   29 cycles

 The electronic state is 2-A.
 Alpha  occ. eigenvalues --  -38.46037 -38.45035 -38.44834 -38.44478 -38.43249
 Alpha  occ. eigenvalues --  -38.42653 -38.42362  -2.21822  -2.21148  -2.21019
 Alpha  occ. eigenvalues --   -2.20690  -2.19354  -2.18755  -2.18473  -1.15539
 Alpha  occ. eigenvalues --   -1.15458  -1.15448  -1.15073  -1.14978  -1.14724
 Alpha  occ. eigenvalues --   -1.14704  -1.14632  -1.14514  -1.14393  -1.14313
 Alpha  occ. eigenvalues --   -1.14269  -1.13112  -1.13007  -1.12956  -1.12478
 Alpha  occ. eigenvalues --   -1.12422  -1.12306  -1.12190  -1.12134  -1.12051
 Alpha  occ. eigenvalues --   -0.21004  -0.13937  -0.12218  -0.11563
 Alpha virt. eigenvalues --   -0.07594  -0.03856  -0.03473  -0.03347  -0.02734
 Alpha virt. eigenvalues --   -0.02497  -0.02418  -0.00825  -0.00355   0.00015
 Alpha virt. eigenvalues --    0.00277   0.00351   0.00417   0.00838   0.01070

  Beta  occ. eigenvalues --  -38.46044 -38.45002 -38.44747 -38.44391 -38.43220
  Beta  occ. eigenvalues --  -38.42634 -38.42347  -2.21836  -2.21090  -2.20867
  Beta  occ. eigenvalues --   -2.20535  -2.19306  -2.18729  -2.18453  -1.15550
  Beta  occ. eigenvalues --   -1.15466  -1.15456  -1.15011  -1.14893  -1.14648
  Beta  occ. eigenvalues --   -1.14621  -1.14545  -1.14409  -1.14284  -1.14201
  Beta  occ. eigenvalues --   -1.14161  -1.13084  -1.12930  -1.12927  -1.12469
  Beta  occ. eigenvalues --   -1.12349  -1.12287  -1.12186  -1.12081  -1.12021
  Beta  occ. eigenvalues --   -0.20122  -0.13796  -0.11197
  Beta virt. eigenvalues --   -0.07855  -0.07446  -0.03439  -0.03291  -0.03117
  Beta virt. eigenvalues --   -0.02508  -0.01675  -0.01586  -0.00509  -0.00288
  Beta virt. eigenvalues --    0.00053   0.00318   0.00376   0.00529   0.00895

 Mulliken charges and spin densities:
               1          2
     1  Na   1.280748   0.287586
     2  Na  -1.077279  -0.125323
     3  Na   0.158494  -0.059235
     4  Na  -0.083060   0.212297
     5  Na  -1.167432  -0.106643
     6  Na   0.644269   0.791169
     7  Na   0.244260   0.000149
 Sum of Mulliken charges =  -0.00000   1.00000

 Dipole moment (field-independent basis, Debye):
    X=             -1.0715    Y=             -0.1334    Z=             -0.3227  Tot=              1.1270
 Quadrupole moment (field-independent basis, Debye-Ang):
   XX=            -45.0886   YY=            -78.5192   ZZ=            -67.8922
   XY=              0.7536   XZ=              2.0816   YZ=              0.0435

 Normal termination of Gaussian 16 at Mon Nov 13 18:11:13 2023.
