 Gaussian 16, Revision B.01,
 Gaussian 16:  ES64L-G16RevB.01 20-Dec-2017

 -------------------------
 #P B3LYP/6-311+g(d) force
 -------------------------

 ------------------------------
 Gaussian input prepared by ASE
 ------------------------------
 Symbolic Z-matrix:
 Charge =  0 Multiplicity = 2

                         Standard orientation:
 ---------------------------------------------------------------------
 Center     Atomic      Atomic             Coordinates (Angstroms)
 Number     Number       Type             X           Y           Z
 ---------------------------------------------------------------------
      1         11           0       -0.780863    1.967909   -1.426775
      2         11           0       -0.566474   -1.912728    1.460548
      3         11           0        4.040024   -0.188273   -0.109487
      4         11           0        1.058685   -0.157434   -0.363186
      5         11           0       -1.199638   -1.825378   -1.442994
      6         11           0       -0.147746    1.895748    1.477259
      7         11           0       -2.403988    0.220155    0.404634
 ---------------------------------------------------------------------

 SCF Done:  E(UB3LYP) =  -1136.10342332     A.U. after   22 cycles

 The electronic state is 2-A.
 Alpha  occ. eigenvalues --  -38.44364 -38.43806 -38.43803 -38.43792 -38.43719
 Alpha  occ. eigenvalues --  -38.43660 -38.42483  -2.20145  -2.19921  -2.19817
 Alpha  occ. eigenvalues --   -2.19801  -2.19731  -2.19672  -2.18678  -1.13850
 Alpha  occ. eigenvalues --   -1.13791  -1.13785  -1.13752  -1.13701  -1.13676
 Alpha  occ. eigenvalues --   -1.13548  -1.13531  -1.13473  -1.13448  -1.13411
 Alpha  occ. eigenvalues --   -1.13392  -1.13381  -1.13353  -1.13316  -1.13268
 Alpha  occ. eigenvalues --   -1.13261  -1.13219  -1.12368  -1.12322  -1.12302
 Alpha  occ. eigenvalues --   -0.20271  -0.12657  -0.12428  -0.12082
 Alpha virt. eigenvalues --   -0.06225  -0.04258  -0.03888  -0.03203  -0.02866
 Alpha virt. eigenvalues --   -0.02775  -0.01670  -0.00573  -0.00531   0.00240
 Alpha virt. eigenvalues --    0.00355   0.00456   0.00607   0.00852   0.01066

  Beta  occ. eigenvalues --  -38.44377 -38.43773 -38.43762 -38.43748 -38.43676
  Beta  occ. eigenvalues --  -38.43619 -38.42455  -2.20171  -2.19876  -2.19738
  Beta  occ. eigenvalues --   -2.19723  -2.19655  -2.19598  -2.18634  -1.13865
  Beta  occ. eigenvalues --   -1.13806  -1.13802  -1.13721  -1.13670  -1.13577
  Beta  occ. eigenvalues --   -1.13503  -1.13488  -1.13408  -1.13380  -1.13348
  Beta  occ. eigenvalues --   -1.13334  -1.13322  -1.13293  -1.13264  -1.13215
  Beta  occ. eigenvalues --   -1.13196  -1.13153  -1.12315  -1.12279  -1.12261
  Beta  occ. eigenvalues --   -0.19290  -0.12562  -0.12324
  Beta virt. eigenvalues --   -0.07666  -0.06071  -0.04105  -0.03370  -0.03003
  Beta virt. eigenvalues --   -0.02256  -0.01908  -0.01457  -0.00602  -0.00163
  Beta virt. eigenvalues --    0.00276   0.00331   0.00571   0.00680   0.00870

 Mulliken charges and spin densities:
               1          2
     1  Na   0.016874   0.287303
     2  Na  -0.112617   0.313713
     3  Na   0.249602  -0.703448
     4  Na  -0.999185   0.349158
     5  Na   0.451791   0.349826
     6  Na   0.041249   0.281614
     7  Na   0.352285   0.121834
 Sum of Mulliken charges =  -0.00000   1.00000

 Dipole moment (field-independent basis, Debye):
    X=             -0.1658    Y=              0.0638    Z=              0.1399  Tot=              0.2261
 Quadrupole moment (field-independent basis, Debye-Ang):
   XX=            -60.0341   YY=            -68.7381   ZZ=            -64.1675
   XY=              0.5047   XZ=              1.4328   YZ=             -0.1736

 Normal termination of Gaussian 16 at Mon Nov 13 19:49:40 2023.
