 Gaussian 16, Revision B.01,
 Gaussian 16:  ES64L-G16RevB.01 20-Dec-2017

 -------------------------
 #P B3LYP/6-311+g(d) force
 -------------------------

 ------------------------------
 Gaussian input prepared by ASE
 ------------------------------
 Symbolic Z-matrix:
 Charge =  0 Multiplicity = 2

                         Standard orientation:
 ---------------------------------------------------------------------
 Center     Atomic      Atomic             Coordinates (Angstroms)
 Number     Number       Type             X           Y           Z
 ---------------------------------------------------------------------
      1         11           0       -0.689542    1.509093    0.258776
      2         11           0        2.395551   -2.588148   -0.389837
      3         11           0        1.920050    2.839894   -0.385602
      4         11           0        1.896538    0.101475    0.836821
      5         11           0       -0.333394   -1.352341   -0.551100
      6         11           0       -2.356810   -0.630548    1.547606
      7         11           0       -2.832393    0.120575   -1.316662
 ---------------------------------------------------------------------

 SCF Done:  E(UB3LYP) =  -1136.10240382     A.U. after   19 cycles

 The electronic state is 2-A.
 Alpha  occ. eigenvalues --  -38.44144 -38.44130 -38.43707 -38.43618 -38.43488
 Alpha  occ. eigenvalues --  -38.43439 -38.43332  -2.20161  -2.20134  -2.19606
 Alpha  occ. eigenvalues --   -2.19600  -2.19559  -2.19511  -2.19495  -1.13990
 Alpha  occ. eigenvalues --   -1.13832  -1.13826  -1.13823  -1.13774  -1.13642
 Alpha  occ. eigenvalues --   -1.13512  -1.13446  -1.13373  -1.13310  -1.13289
 Alpha  occ. eigenvalues --   -1.13232  -1.13220  -1.13199  -1.13157  -1.13142
 Alpha  occ. eigenvalues --   -1.13124  -1.13113  -1.13064  -1.13030  -1.13018
 Alpha  occ. eigenvalues --   -0.19790  -0.14279  -0.12558  -0.10661
 Alpha virt. eigenvalues --   -0.05929  -0.05327  -0.04505  -0.03338  -0.02261
 Alpha virt. eigenvalues --   -0.02135  -0.01507  -0.01140  -0.00481   0.00017
 Alpha virt. eigenvalues --    0.00264   0.00503   0.00664   0.00830   0.00886

  Beta  occ. eigenvalues --  -38.44080 -38.44076 -38.43708 -38.43618 -38.43475
  Beta  occ. eigenvalues --  -38.43410 -38.43303  -2.20050  -2.20030  -2.19605
  Beta  occ. eigenvalues --   -2.19561  -2.19535  -2.19509  -2.19453  -1.13932
  Beta  occ. eigenvalues --   -1.13752  -1.13745  -1.13735  -1.13697  -1.13559
  Beta  occ. eigenvalues --   -1.13491  -1.13439  -1.13359  -1.13304  -1.13268
  Beta  occ. eigenvalues --   -1.13216  -1.13190  -1.13149  -1.13137  -1.13115
  Beta  occ. eigenvalues --   -1.13104  -1.13048  -1.13030  -1.13008  -1.12998
  Beta  occ. eigenvalues --   -0.19007  -0.14116  -0.12429
  Beta virt. eigenvalues --   -0.06552  -0.05698  -0.05111  -0.04280  -0.02911
  Beta virt. eigenvalues --   -0.01873  -0.01839  -0.01038  -0.00831  -0.00094
  Beta virt. eigenvalues --    0.00064   0.00350   0.00627   0.00773   0.00921

 Mulliken charges and spin densities:
               1          2
     1  Na  -0.154070   0.555504
     2  Na   0.038542  -0.227254
     3  Na  -0.009256  -0.154298
     4  Na   0.347687   0.137814
     5  Na  -1.343207   0.311225
     6  Na   0.187517   0.302549
     7  Na   0.932786   0.074461
 Sum of Mulliken charges =  -0.00000   1.00000

 Dipole moment (field-independent basis, Debye):
    X=             -0.1032    Y=             -0.0346    Z=             -0.0489  Tot=              0.1193
 Quadrupole moment (field-independent basis, Debye-Ang):
   XX=            -54.3283   YY=            -65.4900   ZZ=            -72.4346
   XY=              0.6477   XZ=             -1.0194   YZ=             -1.6893

 Normal termination of Gaussian 16 at Mon Nov 13 17:52:10 2023.
