 Gaussian 16, Revision B.01,
 Gaussian 16:  ES64L-G16RevB.01 20-Dec-2017

 -------------------------
 #P B3LYP/6-311+g(d) force
 -------------------------

 ------------------------------
 Gaussian input prepared by ASE
 ------------------------------
 Symbolic Z-matrix:
 Charge =  0 Multiplicity = 2

                         Standard orientation:
 ---------------------------------------------------------------------
 Center     Atomic      Atomic             Coordinates (Angstroms)
 Number     Number       Type             X           Y           Z
 ---------------------------------------------------------------------
      1         11           0       -1.222501    2.423728   -1.159759
      2         11           0        1.603440    1.960279    2.165519
      3         11           0       -4.116690   -1.261218    0.930298
      4         11           0       -2.055231   -0.451276   -1.088148
      5         11           0        0.703202    0.331619   -0.193485
      6         11           0        1.839916   -2.287633    0.735246
      7         11           0        3.247864   -0.715500   -1.389671
 ---------------------------------------------------------------------

 SCF Done:  E(UB3LYP) =  -1136.09758702     A.U. after   22 cycles

 The electronic state is 2-A.
 Alpha  occ. eigenvalues --  -38.45294 -38.44880 -38.43964 -38.43878 -38.43871
 Alpha  occ. eigenvalues --  -38.43214 -38.43027  -2.21181  -2.20758  -2.19802
 Alpha  occ. eigenvalues --   -2.19779  -2.19687  -2.19217  -2.19186  -1.14899
 Alpha  occ. eigenvalues --   -1.14845  -1.14792  -1.14474  -1.14380  -1.14371
 Alpha  occ. eigenvalues --   -1.13541  -1.13511  -1.13431  -1.13423  -1.13397
 Alpha  occ. eigenvalues --   -1.13393  -1.13386  -1.13320  -1.13316  -1.13022
 Alpha  occ. eigenvalues --   -1.12898  -1.12829  -1.12809  -1.12807  -1.12775
 Alpha  occ. eigenvalues --   -0.18216  -0.14048  -0.11778  -0.10855
 Alpha virt. eigenvalues --   -0.06661  -0.05211  -0.03939  -0.03417  -0.03110
 Alpha virt. eigenvalues --   -0.01990  -0.01934  -0.01200  -0.00813  -0.00321
 Alpha virt. eigenvalues --    0.00080   0.00173   0.00379   0.00578   0.00648

  Beta  occ. eigenvalues --  -38.45268 -38.44884 -38.43879 -38.43846 -38.43827
  Beta  occ. eigenvalues --  -38.43203 -38.43007  -2.21133  -2.20767  -2.19723
  Beta  occ. eigenvalues --   -2.19645  -2.19605  -2.19192  -2.19172  -1.14871
  Beta  occ. eigenvalues --   -1.14815  -1.14753  -1.14482  -1.14382  -1.14363
  Beta  occ. eigenvalues --   -1.13495  -1.13407  -1.13392  -1.13346  -1.13336
  Beta  occ. eigenvalues --   -1.13324  -1.13287  -1.13263  -1.13259  -1.13010
  Beta  occ. eigenvalues --   -1.12831  -1.12825  -1.12802  -1.12775  -1.12719
  Beta  occ. eigenvalues --   -0.17655  -0.13654  -0.11247
  Beta virt. eigenvalues --   -0.07389  -0.06344  -0.05057  -0.03487  -0.03099
  Beta virt. eigenvalues --   -0.02829  -0.01763  -0.01451  -0.00997  -0.00469
  Beta virt. eigenvalues --   -0.00195   0.00145   0.00289   0.00525   0.00626

 Mulliken charges and spin densities:
               1          2
     1  Na  -0.101552   0.314823
     2  Na   0.953796   0.149604
     3  Na  -0.075500   0.396287
     4  Na   0.461747  -0.510308
     5  Na  -4.006540   0.803834
     6  Na   1.563662   0.006501
     7  Na   1.204387  -0.160741
 Sum of Mulliken charges =  -0.00000   1.00000

 Dipole moment (field-independent basis, Debye):
    X=              1.5497    Y=              0.1583    Z=             -0.0095  Tot=              1.5578
 Quadrupole moment (field-independent basis, Debye-Ang):
   XX=            -60.2340   YY=            -67.7555   ZZ=            -66.6868
   XY=             -4.0250   XZ=             -4.0703   YZ=             -4.1082

 Normal termination of Gaussian 16 at Mon Nov 13 17:26:13 2023.
