 Gaussian 16, Revision B.01,
 Gaussian 16:  ES64L-G16RevB.01 20-Dec-2017

 -------------------------
 #P B3LYP/6-311+g(d) force
 -------------------------

 ------------------------------
 Gaussian input prepared by ASE
 ------------------------------
 Symbolic Z-matrix:
 Charge =  0 Multiplicity = 2

                         Standard orientation:
 ---------------------------------------------------------------------
 Center     Atomic      Atomic             Coordinates (Angstroms)
 Number     Number       Type             X           Y           Z
 ---------------------------------------------------------------------
      1         11           0        0.018419    2.019014   -0.029024
      2         11           0        1.290925    0.075689    1.875757
      3         11           0        3.556281   -0.081813   -0.084337
      4         11           0        1.148000   -0.067493   -1.873803
      5         11           0       -0.064672   -1.954154    0.123976
      6         11           0       -3.018964   -1.492652   -0.014828
      7         11           0       -2.929988    1.501409    0.002259
 ---------------------------------------------------------------------

 SCF Done:  E(UB3LYP) =  -1136.10099247     A.U. after   22 cycles

 The electronic state is 2-A.
 Alpha  occ. eigenvalues --  -38.46228 -38.44458 -38.44380 -38.44379 -38.44328
 Alpha  occ. eigenvalues --  -38.43124 -38.42879  -2.22115  -2.20477  -2.20400
 Alpha  occ. eigenvalues --   -2.20254  -2.20199  -2.19103  -2.18862  -1.15829
 Alpha  occ. eigenvalues --   -1.15792  -1.15721  -1.14172  -1.14109  -1.14099
 Alpha  occ. eigenvalues --   -1.14083  -1.14046  -1.14030  -1.14012  -1.13944
 Alpha  occ. eigenvalues --   -1.13893  -1.13888  -1.13828  -1.13771  -1.12791
 Alpha  occ. eigenvalues --   -1.12785  -1.12703  -1.12548  -1.12542  -1.12472
 Alpha  occ. eigenvalues --   -0.19654  -0.14425  -0.11510  -0.11502
 Alpha virt. eigenvalues --   -0.07473  -0.05087  -0.03858  -0.03410  -0.03014
 Alpha virt. eigenvalues --   -0.02657  -0.02331  -0.00741  -0.00441  -0.00004
 Alpha virt. eigenvalues --    0.00178   0.00259   0.00311   0.00824   0.00903

  Beta  occ. eigenvalues --  -38.46211 -38.44391 -38.44365 -38.44338 -38.44285
  Beta  occ. eigenvalues --  -38.43107 -38.42863  -2.22091  -2.20307  -2.20274
  Beta  occ. eigenvalues --   -2.20228  -2.20219  -2.19078  -2.18838  -1.15785
  Beta  occ. eigenvalues --   -1.15753  -1.15708  -1.14066  -1.14057  -1.13983
  Beta  occ. eigenvalues --   -1.13980  -1.13968  -1.13957  -1.13906  -1.13902
  Beta  occ. eigenvalues --   -1.13899  -1.13894  -1.13836  -1.13788  -1.12780
  Beta  occ. eigenvalues --   -1.12722  -1.12693  -1.12540  -1.12478  -1.12463
  Beta  occ. eigenvalues --   -0.18882  -0.14284  -0.11304
  Beta virt. eigenvalues --   -0.07358  -0.07274  -0.04970  -0.03465  -0.03145
  Beta virt. eigenvalues --   -0.02719  -0.01789  -0.01565  -0.00727  -0.00127
  Beta virt. eigenvalues --    0.00060   0.00191   0.00245   0.00586   0.00819

 Mulliken charges and spin densities:
               1          2
     1  Na   0.071416   0.087758
     2  Na  -0.221239   0.450874
     3  Na   0.757778   0.036342
     4  Na  -0.351958   0.473807
     5  Na   0.081328   0.156134
     6  Na  -0.139495  -0.126994
     7  Na  -0.197829  -0.077921
 Sum of Mulliken charges =  -0.00000   1.00000

 Dipole moment (field-independent basis, Debye):
    X=              0.9485    Y=             -0.0101    Z=             -0.0239  Tot=              0.9489
 Quadrupole moment (field-independent basis, Debye-Ang):
   XX=            -44.1662   YY=            -79.1609   ZZ=            -71.7268
   XY=             -0.2635   XZ=              0.0584   YZ=              0.1793

 Normal termination of Gaussian 16 at Mon Nov 13 15:50:03 2023.
