 Gaussian 16, Revision B.01,
 Gaussian 16:  ES64L-G16RevB.01 20-Dec-2017

 -------------------------
 #P B3LYP/6-311+g(d) force
 -------------------------

 ------------------------------
 Gaussian input prepared by ASE
 ------------------------------
 Symbolic Z-matrix:
 Charge =  0 Multiplicity = 2

                         Standard orientation:
 ---------------------------------------------------------------------
 Center     Atomic      Atomic             Coordinates (Angstroms)
 Number     Number       Type             X           Y           Z
 ---------------------------------------------------------------------
      1         11           0        0.425734   -0.176614    1.766615
      2         11           0        1.819785    2.236705    0.650481
      3         11           0        4.272069   -1.336601   -0.488403
      4         11           0        1.527308   -0.239833   -1.012659
      5         11           0       -3.562303   -2.289526    0.335755
      6         11           0       -1.443154   -0.367063   -0.570938
      7         11           0       -3.039438    2.172933   -0.680851
 ---------------------------------------------------------------------

 SCF Done:  E(UB3LYP) =  -1136.08699458     A.U. after   34 cycles

 The electronic state is 2-A.
 Alpha  occ. eigenvalues --  -38.44893 -38.44824 -38.44813 -38.44764 -38.44284
 Alpha  occ. eigenvalues --  -38.43797 -38.43486  -2.20812  -2.20721  -2.20649
 Alpha  occ. eigenvalues --   -2.20620  -2.20342  -2.19858  -2.19307  -1.14597
 Alpha  occ. eigenvalues --   -1.14522  -1.14418  -1.14412  -1.14373  -1.14346
 Alpha  occ. eigenvalues --   -1.14325  -1.14308  -1.14268  -1.14263  -1.14253
 Alpha  occ. eigenvalues --   -1.14223  -1.14083  -1.13981  -1.13922  -1.13558
 Alpha  occ. eigenvalues --   -1.13521  -1.13436  -1.12973  -1.12947  -1.12947
 Alpha  occ. eigenvalues --   -0.18742  -0.14272  -0.11310  -0.10835
 Alpha virt. eigenvalues --   -0.07183  -0.06336  -0.03668  -0.03336  -0.02919
 Alpha virt. eigenvalues --   -0.02196  -0.02025  -0.01755  -0.00686  -0.00415
 Alpha virt. eigenvalues --   -0.00295   0.00144   0.00342   0.00399   0.00496

  Beta  occ. eigenvalues --  -38.44814 -38.44794 -38.44764 -38.44744 -38.44275
  Beta  occ. eigenvalues --  -38.43778 -38.43470  -2.20686  -2.20650  -2.20603
  Beta  occ. eigenvalues --   -2.20536  -2.20327  -2.19834  -2.19278  -1.14531
  Beta  occ. eigenvalues --   -1.14444  -1.14364  -1.14341  -1.14316  -1.14294
  Beta  occ. eigenvalues --   -1.14257  -1.14254  -1.14233  -1.14217  -1.14192
  Beta  occ. eigenvalues --   -1.14185  -1.14066  -1.13959  -1.13918  -1.13538
  Beta  occ. eigenvalues --   -1.13471  -1.13395  -1.12953  -1.12928  -1.12927
  Beta  occ. eigenvalues --   -0.18273  -0.13750  -0.10801
  Beta virt. eigenvalues --   -0.07438  -0.07013  -0.05911  -0.03245  -0.03025
  Beta virt. eigenvalues --   -0.02720  -0.01955  -0.01600  -0.01229  -0.00546
  Beta virt. eigenvalues --   -0.00287  -0.00150   0.00228   0.00429   0.00544

 Mulliken charges and spin densities:
               1          2
     1  Na  -0.202394   0.157542
     2  Na   0.195811   0.027420
     3  Na   0.472636  -0.044913
     4  Na   0.008649  -0.107271
     5  Na  -0.145099   0.120314
     6  Na  -0.707815   0.655156
     7  Na   0.378213   0.191751
 Sum of Mulliken charges =  -0.00000   1.00000

 Dipole moment (field-independent basis, Debye):
    X=             -0.6103    Y=              0.8802    Z=              1.5302  Tot=              1.8679
 Quadrupole moment (field-independent basis, Debye-Ang):
   XX=            -58.5248   YY=            -68.3027   ZZ=            -71.1695
   XY=              6.1852   XZ=              2.2117   YZ=             -2.7177

 Normal termination of Gaussian 16 at Mon Nov 13 18:27:58 2023.
