 Gaussian 16, Revision B.01,
 Gaussian 16:  ES64L-G16RevB.01 20-Dec-2017

 -------------------------
 #P B3LYP/6-311+g(d) force
 -------------------------

 ------------------------------
 Gaussian input prepared by ASE
 ------------------------------
 Symbolic Z-matrix:
 Charge =  0 Multiplicity = 2

                         Standard orientation:
 ---------------------------------------------------------------------
 Center     Atomic      Atomic             Coordinates (Angstroms)
 Number     Number       Type             X           Y           Z
 ---------------------------------------------------------------------
      1         11           0        0.700615   -1.718423    0.428681
      2         11           0        0.403088    0.459310   -1.586559
      3         11           0        2.922447   -0.114918   -0.372628
      4         11           0        0.994965    1.212830    1.256242
      5         11           0       -1.583607    1.815766   -0.281922
      6         11           0       -1.985036   -1.164511   -1.013285
      7         11           0       -1.452471   -0.490056    1.569471
 ---------------------------------------------------------------------

 SCF Done:  E(UB3LYP) =  -1136.07816933     A.U. after   23 cycles

 The electronic state is 2-A.
 Alpha  occ. eigenvalues --  -38.44539 -38.44442 -38.44188 -38.43991 -38.43664
 Alpha  occ. eigenvalues --  -38.43059 -38.42896  -2.20651  -2.20585  -2.20468
 Alpha  occ. eigenvalues --   -2.20098  -2.19846  -2.19163  -2.19103  -1.14510
 Alpha  occ. eigenvalues --   -1.14495  -1.14414  -1.14317  -1.14270  -1.14215
 Alpha  occ. eigenvalues --   -1.14207  -1.14105  -1.14032  -1.13732  -1.13692
 Alpha  occ. eigenvalues --   -1.13658  -1.13550  -1.13463  -1.13429  -1.12856
 Alpha  occ. eigenvalues --   -1.12810  -1.12801  -1.12751  -1.12735  -1.12669
 Alpha  occ. eigenvalues --   -0.21648  -0.14294  -0.12890  -0.11982
 Alpha virt. eigenvalues --   -0.05654  -0.04298  -0.03928  -0.03706  -0.02938
 Alpha virt. eigenvalues --   -0.02834  -0.01242  -0.00423  -0.00238   0.00297
 Alpha virt. eigenvalues --    0.00729   0.00901   0.01037   0.01060   0.01099

  Beta  occ. eigenvalues --  -38.44532 -38.44377 -38.44113 -38.43957 -38.43611
  Beta  occ. eigenvalues --  -38.43046 -38.42873  -2.20573  -2.20538  -2.20335
  Beta  occ. eigenvalues --   -2.20040  -2.19753  -2.19147  -2.19071  -1.14461
  Beta  occ. eigenvalues --   -1.14446  -1.14309  -1.14269  -1.14217  -1.14179
  Beta  occ. eigenvalues --   -1.14139  -1.14007  -1.13958  -1.13678  -1.13643
  Beta  occ. eigenvalues --   -1.13604  -1.13489  -1.13392  -1.13344  -1.12844
  Beta  occ. eigenvalues --   -1.12782  -1.12768  -1.12711  -1.12697  -1.12625
  Beta  occ. eigenvalues --   -0.20768  -0.14052  -0.11727
  Beta virt. eigenvalues --   -0.08417  -0.05567  -0.03952  -0.03500  -0.03308
  Beta virt. eigenvalues --   -0.02146  -0.01935  -0.01192  -0.00284  -0.00086
  Beta virt. eigenvalues --    0.00332   0.00802   0.00983   0.01074   0.01109

 Mulliken charges and spin densities:
               1          2
     1  Na  -0.889828   0.193871
     2  Na  -0.097103   0.413994
     3  Na   1.071527  -0.019647
     4  Na  -0.647783   0.147145
     5  Na  -0.106500   0.002092
     6  Na  -0.061246  -0.022196
     7  Na   0.730933   0.284741
 Sum of Mulliken charges =  -0.00000   1.00000

 Dipole moment (field-independent basis, Debye):
    X=              0.2371    Y=              0.0876    Z=             -0.0946  Tot=              0.2699
 Quadrupole moment (field-independent basis, Debye-Ang):
   XX=            -56.8603   YY=            -75.5169   ZZ=            -64.8021
   XY=             -0.1053   XZ=              0.1517   YZ=              1.7643

 Normal termination of Gaussian 16 at Mon Nov 13 16:55:10 2023.
