 Gaussian 16, Revision B.01,
 Gaussian 16:  ES64L-G16RevB.01 20-Dec-2017

 -------------------------
 #P B3LYP/6-311+g(d) force
 -------------------------

 ------------------------------
 Gaussian input prepared by ASE
 ------------------------------
 Symbolic Z-matrix:
 Charge =  0 Multiplicity = 2

                         Standard orientation:
 ---------------------------------------------------------------------
 Center     Atomic      Atomic             Coordinates (Angstroms)
 Number     Number       Type             X           Y           Z
 ---------------------------------------------------------------------
      1         11           0       -1.350699   -1.776826   -1.049950
      2         11           0       -1.175523   -0.905652    1.800970
      3         11           0       -3.193563    0.349620   -0.024620
      4         11           0       -1.059313    2.381656   -0.575572
      5         11           0        3.085275    2.023760    0.295150
      6         11           0        0.846070    0.083350   -0.184840
      7         11           0        2.847754   -2.155908   -0.261137
 ---------------------------------------------------------------------

 SCF Done:  E(UB3LYP) =  -1136.10143395     A.U. after   24 cycles

 The electronic state is 2-A.
 Alpha  occ. eigenvalues --  -38.44943 -38.44859 -38.44723 -38.43884 -38.43623
 Alpha  occ. eigenvalues --  -38.43501 -38.42818  -2.20734  -2.20715  -2.20653
 Alpha  occ. eigenvalues --   -2.19873  -2.19520  -2.19516  -2.19009  -1.14443
 Alpha  occ. eigenvalues --   -1.14426  -1.14393  -1.14390  -1.14373  -1.14361
 Alpha  occ. eigenvalues --   -1.14347  -1.14308  -1.14266  -1.13642  -1.13540
 Alpha  occ. eigenvalues --   -1.13466  -1.13259  -1.13223  -1.13164  -1.13138
 Alpha  occ. eigenvalues --   -1.13127  -1.13089  -1.12685  -1.12671  -1.12620
 Alpha  occ. eigenvalues --   -0.19253  -0.13959  -0.11988  -0.10197
 Alpha virt. eigenvalues --   -0.06516  -0.06331  -0.03791  -0.03154  -0.02361
 Alpha virt. eigenvalues --   -0.02085  -0.01720  -0.01612  -0.00510  -0.00097
 Alpha virt. eigenvalues --   -0.00030   0.00203   0.00668   0.00692   0.00775

  Beta  occ. eigenvalues --  -38.44942 -38.44858 -38.44703 -38.43850 -38.43606
  Beta  occ. eigenvalues --  -38.43409 -38.42798  -2.20734  -2.20687  -2.20650
  Beta  occ. eigenvalues --   -2.19815  -2.19487  -2.19351  -2.18979  -1.14443
  Beta  occ. eigenvalues --   -1.14415  -1.14384  -1.14381  -1.14359  -1.14347
  Beta  occ. eigenvalues --   -1.14302  -1.14287  -1.14267  -1.13604  -1.13477
  Beta  occ. eigenvalues --   -1.13414  -1.13241  -1.13148  -1.13115  -1.13082
  Beta  occ. eigenvalues --   -1.13026  -1.12968  -1.12673  -1.12610  -1.12580
  Beta  occ. eigenvalues --   -0.18534  -0.13754  -0.11751
  Beta virt. eigenvalues --   -0.06517  -0.06319  -0.05954  -0.03682  -0.02553
  Beta virt. eigenvalues --   -0.02273  -0.01632  -0.01565  -0.00793  -0.00457
  Beta virt. eigenvalues --   -0.00007   0.00177   0.00311   0.00691   0.00725

 Mulliken charges and spin densities:
               1          2
     1  Na   0.746199  -0.097663
     2  Na   0.143149   0.177013
     3  Na   0.859554   0.407318
     4  Na   0.559850  -0.013400
     5  Na   0.157534  -0.001342
     6  Na  -2.729083   0.606873
     7  Na   0.262797  -0.078799
 Sum of Mulliken charges =  -0.00000   1.00000

 Dipole moment (field-independent basis, Debye):
    X=              0.8738    Y=             -0.1475    Z=              0.0346  Tot=              0.8868
 Quadrupole moment (field-independent basis, Debye-Ang):
   XX=            -47.2457   YY=            -65.8224   ZZ=            -76.3596
   XY=             -0.8723   XZ=              1.7586   YZ=              1.3896

 Normal termination of Gaussian 16 at Mon Nov 13 18:37:53 2023.
