 Gaussian 16, Revision B.01,
 Gaussian 16:  ES64L-G16RevB.01 20-Dec-2017

 -------------------------
 #P B3LYP/6-311+g(d) force
 -------------------------

 ------------------------------
 Gaussian input prepared by ASE
 ------------------------------
 Symbolic Z-matrix:
 Charge =  0 Multiplicity = 2

                         Standard orientation:
 ---------------------------------------------------------------------
 Center     Atomic      Atomic             Coordinates (Angstroms)
 Number     Number       Type             X           Y           Z
 ---------------------------------------------------------------------
      1         11           0        1.629256    1.373813   -0.677639
      2         11           0       -0.520642    2.719393    0.919410
      3         11           0        3.521041   -0.654938    0.463023
      4         11           0        1.352261   -1.511650   -1.420837
      5         11           0       -3.450996   -0.263694   -1.669556
      6         11           0       -0.920134   -0.088134   -0.065438
      7         11           0       -1.610785   -1.574788    2.451036
 ---------------------------------------------------------------------

 SCF Done:  E(UB3LYP) =  -1136.09515837     A.U. after   22 cycles

 The electronic state is 2-A.
 Alpha  occ. eigenvalues --  -38.45400 -38.45037 -38.44764 -38.44452 -38.43219
 Alpha  occ. eigenvalues --  -38.42635 -38.42415  -2.21278  -2.20840  -2.20595
 Alpha  occ. eigenvalues --   -2.20407  -2.19298  -2.18807  -2.18317  -1.14985
 Alpha  occ. eigenvalues --   -1.14940  -1.14903  -1.14527  -1.14465  -1.14455
 Alpha  occ. eigenvalues --   -1.14280  -1.14202  -1.14190  -1.14172  -1.14040
 Alpha  occ. eigenvalues --   -1.14007  -1.13059  -1.12948  -1.12920  -1.12538
 Alpha  occ. eigenvalues --   -1.12492  -1.12434  -1.11987  -1.11949  -1.11938
 Alpha  occ. eigenvalues --   -0.18664  -0.13893  -0.11442  -0.11259
 Alpha virt. eigenvalues --   -0.06871  -0.04743  -0.04242  -0.03342  -0.02647
 Alpha virt. eigenvalues --   -0.02633  -0.01954  -0.00757  -0.00595   0.00013
 Alpha virt. eigenvalues --    0.00113   0.00336   0.00454   0.00704   0.00770

  Beta  occ. eigenvalues --  -38.45401 -38.44979 -38.44652 -38.44445 -38.43214
  Beta  occ. eigenvalues --  -38.42613 -38.42413  -2.21281  -2.20733  -2.20396
  Beta  occ. eigenvalues --   -2.20387  -2.19289  -2.18779  -2.18315  -1.14987
  Beta  occ. eigenvalues --   -1.14944  -1.14901  -1.14456  -1.14388  -1.14381
  Beta  occ. eigenvalues --   -1.14163  -1.14139  -1.14060  -1.14047  -1.14026
  Beta  occ. eigenvalues --   -1.13998  -1.13052  -1.12932  -1.12916  -1.12516
  Beta  occ. eigenvalues --   -1.12428  -1.12390  -1.11985  -1.11950  -1.11927
  Beta  occ. eigenvalues --   -0.18182  -0.13425  -0.11196
  Beta virt. eigenvalues --   -0.07456  -0.06551  -0.04428  -0.03978  -0.03107
  Beta virt. eigenvalues --   -0.02354  -0.02041  -0.01479  -0.00582  -0.00323
  Beta virt. eigenvalues --    0.00125   0.00224   0.00390   0.00570   0.00790

 Mulliken charges and spin densities:
               1          2
     1  Na  -0.152715  -0.160509
     2  Na   0.194678   0.074606
     3  Na   0.668799  -0.008316
     4  Na  -0.439054   0.085081
     5  Na   0.100122   0.115491
     6  Na  -0.719514   0.472228
     7  Na   0.347684   0.421418
 Sum of Mulliken charges =  -0.00000   1.00000

 Dipole moment (field-independent basis, Debye):
    X=              0.6771    Y=             -0.5623    Z=              0.3860  Tot=              0.9610
 Quadrupole moment (field-independent basis, Debye-Ang):
   XX=            -52.2633   YY=            -74.5641   ZZ=            -65.4652
   XY=             -2.7634   XZ=              3.6791   YZ=             -1.2977

 Normal termination of Gaussian 16 at Mon Nov 13 18:33:41 2023.
