 Gaussian 16, Revision B.01,
 Gaussian 16:  ES64L-G16RevB.01 20-Dec-2017

 -------------------------
 #P B3LYP/6-311+g(d) force
 -------------------------

 ------------------------------
 Gaussian input prepared by ASE
 ------------------------------
 Symbolic Z-matrix:
 Charge =  0 Multiplicity = 2

                         Standard orientation:
 ---------------------------------------------------------------------
 Center     Atomic      Atomic             Coordinates (Angstroms)
 Number     Number       Type             X           Y           Z
 ---------------------------------------------------------------------
      1         11           0        0.306509    0.809633    1.149714
      2         11           0        1.685024    3.015610   -0.340322
      3         11           0        3.026231    0.354820   -0.035135
      4         11           0        2.320064   -2.513878   -0.573477
      5         11           0       -0.409505   -2.051454    0.583534
      6         11           0       -1.990551    0.166712   -0.670434
      7         11           0       -4.937772    0.218556   -0.113880
 ---------------------------------------------------------------------

 SCF Done:  E(UB3LYP) =  -1136.10564147     A.U. after   24 cycles

 The electronic state is 2-A.
 Alpha  occ. eigenvalues --  -38.44257 -38.44141 -38.44011 -38.43945 -38.43913
 Alpha  occ. eigenvalues --  -38.43704 -38.43541  -2.20237  -2.20098  -2.19938
 Alpha  occ. eigenvalues --   -2.19921  -2.19902  -2.19676  -2.19450  -1.14006
 Alpha  occ. eigenvalues --   -1.13951  -1.13938  -1.13796  -1.13716  -1.13713
 Alpha  occ. eigenvalues --   -1.13697  -1.13649  -1.13601  -1.13584  -1.13575
 Alpha  occ. eigenvalues --   -1.13560  -1.13531  -1.13522  -1.13455  -1.13334
 Alpha  occ. eigenvalues --   -1.13306  -1.13287  -1.13099  -1.13077  -1.13065
 Alpha  occ. eigenvalues --   -0.18812  -0.14244  -0.12864  -0.10828
 Alpha virt. eigenvalues --   -0.06127  -0.05244  -0.04647  -0.03642  -0.02883
 Alpha virt. eigenvalues --   -0.02297  -0.01228  -0.01078  -0.00935  -0.00299
 Alpha virt. eigenvalues --   -0.00266   0.00134   0.00577   0.00683   0.00756

  Beta  occ. eigenvalues --  -38.44159 -38.44094 -38.44007 -38.43918 -38.43875
  Beta  occ. eigenvalues --  -38.43697 -38.43515  -2.20153  -2.19916  -2.19908
  Beta  occ. eigenvalues --   -2.19891  -2.19840  -2.19675  -2.19403  -1.13934
  Beta  occ. eigenvalues --   -1.13897  -1.13888  -1.13686  -1.13664  -1.13619
  Beta  occ. eigenvalues --   -1.13591  -1.13587  -1.13568  -1.13560  -1.13545
  Beta  occ. eigenvalues --   -1.13517  -1.13504  -1.13488  -1.13417  -1.13316
  Beta  occ. eigenvalues --   -1.13293  -1.13251  -1.13057  -1.13043  -1.13035
  Beta  occ. eigenvalues --   -0.18307  -0.13477  -0.12624
  Beta virt. eigenvalues --   -0.07244  -0.05879  -0.05079  -0.04377  -0.02985
  Beta virt. eigenvalues --   -0.02534  -0.02134  -0.01081  -0.00767  -0.00633
  Beta virt. eigenvalues --   -0.00032   0.00047   0.00319   0.00660   0.00783

 Mulliken charges and spin densities:
               1          2
     1  Na  -0.364014   0.243593
     2  Na   0.621743   0.000772
     3  Na  -0.457560   0.297922
     4  Na   0.365480   0.194778
     5  Na  -0.070368  -0.108112
     6  Na  -0.060561  -0.058817
     7  Na  -0.034720   0.429864
 Sum of Mulliken charges =  -0.00000   1.00000

 Dipole moment (field-independent basis, Debye):
    X=              0.1726    Y=              0.2972    Z=              0.1960  Tot=              0.3957
 Quadrupole moment (field-independent basis, Debye-Ang):
   XX=            -71.0396   YY=            -63.8356   ZZ=            -67.7699
   XY=              2.7542   XZ=             -2.8013   YZ=             -1.5411

 Normal termination of Gaussian 16 at Mon Nov 13 14:56:27 2023.
