 Gaussian 16, Revision B.01,
 Gaussian 16:  ES64L-G16RevB.01 20-Dec-2017

 -------------------------
 #P B3LYP/6-311+g(d) force
 -------------------------

 ------------------------------
 Gaussian input prepared by ASE
 ------------------------------
 Symbolic Z-matrix:
 Charge =  0 Multiplicity = 2

                         Standard orientation:
 ---------------------------------------------------------------------
 Center     Atomic      Atomic             Coordinates (Angstroms)
 Number     Number       Type             X           Y           Z
 ---------------------------------------------------------------------
      1         11           0       -1.387803    0.468022    1.308712
      2         11           0        0.784024   -1.111879    1.396848
      3         11           0       -0.881929    2.108513   -0.756299
      4         11           0        1.490731    1.458466    0.351231
      5         11           0        2.779025   -0.900188   -0.651687
      6         11           0       -0.035817   -0.682495   -1.175988
      7         11           0       -2.748231   -1.340440   -0.472817
 ---------------------------------------------------------------------

 SCF Done:  E(UB3LYP) =  -1136.07013461     A.U. after   22 cycles

 The electronic state is 2-A.
 Alpha  occ. eigenvalues --  -38.44349 -38.44319 -38.44153 -38.44048 -38.43631
 Alpha  occ. eigenvalues --  -38.43499 -38.43342  -2.20560  -2.20392  -2.20329
 Alpha  occ. eigenvalues --   -2.20100  -2.19989  -2.19631  -2.19554  -1.14607
 Alpha  occ. eigenvalues --   -1.14482  -1.14216  -1.14174  -1.14104  -1.14066
 Alpha  occ. eigenvalues --   -1.14010  -1.13975  -1.13875  -1.13815  -1.13712
 Alpha  occ. eigenvalues --   -1.13677  -1.13659  -1.13588  -1.13534  -1.13474
 Alpha  occ. eigenvalues --   -1.13238  -1.13194  -1.13173  -1.13136  -1.12963
 Alpha  occ. eigenvalues --   -0.21406  -0.14323  -0.12225  -0.12146
 Alpha virt. eigenvalues --   -0.05744  -0.04449  -0.03884  -0.03501  -0.02672
 Alpha virt. eigenvalues --   -0.02548  -0.01536  -0.00564  -0.00229   0.00294
 Alpha virt. eigenvalues --    0.00663   0.00732   0.00947   0.01035   0.01091

  Beta  occ. eigenvalues --  -38.44333 -38.44249 -38.44145 -38.43990 -38.43573
  Beta  occ. eigenvalues --  -38.43480 -38.43321  -2.20441  -2.20362  -2.20230
  Beta  occ. eigenvalues --   -2.20086  -2.19889  -2.19600  -2.19523  -1.14521
  Beta  occ. eigenvalues --   -1.14408  -1.14150  -1.14094  -1.14053  -1.14034
  Beta  occ. eigenvalues --   -1.13971  -1.13926  -1.13838  -1.13733  -1.13665
  Beta  occ. eigenvalues --   -1.13656  -1.13618  -1.13515  -1.13478  -1.13414
  Beta  occ. eigenvalues --   -1.13210  -1.13151  -1.13134  -1.13061  -1.12944
  Beta  occ. eigenvalues --   -0.20541  -0.14065  -0.11994
  Beta virt. eigenvalues --   -0.07737  -0.05682  -0.04360  -0.03455  -0.03080
  Beta virt. eigenvalues --   -0.01988  -0.01487  -0.01391  -0.00513   0.00005
  Beta virt. eigenvalues --    0.00331   0.00679   0.00799   0.00956   0.01059

 Mulliken charges and spin densities:
               1          2
     1  Na   0.158736  -0.145920
     2  Na  -0.429772   0.283820
     3  Na   0.154934  -0.032869
     4  Na  -0.384072   0.455632
     5  Na   1.758480  -0.057649
     6  Na  -0.843306   0.456646
     7  Na  -0.415000   0.040340
 Sum of Mulliken charges =  -0.00000   1.00000

 Dipole moment (field-independent basis, Debye):
    X=             -0.0667    Y=             -0.2229    Z=             -0.2943  Tot=              0.3752
 Quadrupole moment (field-independent basis, Debye-Ang):
   XX=            -54.4166   YY=            -72.1956   ZZ=            -68.4275
   XY=              0.0426   XZ=             -0.1368   YZ=              0.0753

 Normal termination of Gaussian 16 at Mon Nov 13 19:33:07 2023.
