 Gaussian 16, Revision B.01,
 Gaussian 16:  ES64L-G16RevB.01 20-Dec-2017

 -------------------------
 #P B3LYP/6-311+g(d) force
 -------------------------

 ------------------------------
 Gaussian input prepared by ASE
 ------------------------------
 Symbolic Z-matrix:
 Charge =  0 Multiplicity = 2

                         Standard orientation:
 ---------------------------------------------------------------------
 Center     Atomic      Atomic             Coordinates (Angstroms)
 Number     Number       Type             X           Y           Z
 ---------------------------------------------------------------------
      1         11           0       -0.759721    0.015809    1.590748
      2         11           0        0.445820   -2.052718   -0.222559
      3         11           0       -2.480254   -1.403960   -0.405252
      4         11           0       -2.236552    1.590161   -0.487228
      5         11           0        0.700776    2.048684   -0.068658
      6         11           0        2.212565   -0.157811    1.290938
      7         11           0        2.117366   -0.040165   -1.697989
 ---------------------------------------------------------------------

 SCF Done:  E(UB3LYP) =  -1136.10434207     A.U. after   21 cycles

 The electronic state is 2-A.
 Alpha  occ. eigenvalues --  -38.44418 -38.44174 -38.43894 -38.43782 -38.43695
 Alpha  occ. eigenvalues --  -38.42922 -38.42906  -2.20418  -2.20264  -2.19898
 Alpha  occ. eigenvalues --   -2.19864  -2.19755  -2.18988  -2.18973  -1.14180
 Alpha  occ. eigenvalues --   -1.14066  -1.14058  -1.14030  -1.13892  -1.13838
 Alpha  occ. eigenvalues --   -1.13744  -1.13615  -1.13596  -1.13559  -1.13515
 Alpha  occ. eigenvalues --   -1.13418  -1.13407  -1.13350  -1.13328  -1.12674
 Alpha  occ. eigenvalues --   -1.12658  -1.12633  -1.12619  -1.12612  -1.12595
 Alpha  occ. eigenvalues --   -0.20497  -0.14254  -0.12303  -0.11884
 Alpha virt. eigenvalues --   -0.05550  -0.04870  -0.04219  -0.03756  -0.02860
 Alpha virt. eigenvalues --   -0.02738  -0.01193  -0.00362  -0.00295   0.00352
 Alpha virt. eigenvalues --    0.00535   0.00616   0.00799   0.00961   0.01008

  Beta  occ. eigenvalues --  -38.44354 -38.44126 -38.43889 -38.43776 -38.43624
  Beta  occ. eigenvalues --  -38.42905 -38.42889  -2.20299  -2.20184  -2.19861
  Beta  occ. eigenvalues --   -2.19771  -2.19742  -2.18964  -2.18949  -1.14118
  Beta  occ. eigenvalues --   -1.13977  -1.13967  -1.13948  -1.13838  -1.13757
  Beta  occ. eigenvalues --   -1.13706  -1.13587  -1.13555  -1.13506  -1.13482
  Beta  occ. eigenvalues --   -1.13391  -1.13351  -1.13323  -1.13292  -1.12657
  Beta  occ. eigenvalues --   -1.12642  -1.12605  -1.12590  -1.12566  -1.12549
  Beta  occ. eigenvalues --   -0.19705  -0.14036  -0.12046
  Beta virt. eigenvalues --   -0.07691  -0.05377  -0.04767  -0.03798  -0.03520
  Beta virt. eigenvalues --   -0.02094  -0.01674  -0.01103  -0.00330  -0.00002
  Beta virt. eigenvalues --    0.00417   0.00537   0.00611   0.00902   0.01013

 Mulliken charges and spin densities:
               1          2
     1  Na  -1.127670  -0.225651
     2  Na   0.155437   0.584234
     3  Na   0.283712   0.007215
     4  Na   0.147650   0.096792
     5  Na   0.225197   0.525326
     6  Na   0.484619   0.030346
     7  Na  -0.168945  -0.018262
 Sum of Mulliken charges =  -0.00000   1.00000

 Dipole moment (field-independent basis, Debye):
    X=             -0.0158    Y=             -0.0187    Z=             -0.4922  Tot=              0.4928
 Quadrupole moment (field-independent basis, Debye-Ang):
   XX=            -57.2997   YY=            -72.8445   ZZ=            -67.0224
   XY=              0.0551   XZ=              1.7613   YZ=             -0.2632

 Normal termination of Gaussian 16 at Mon Nov 13 18:08:43 2023.
