 Gaussian 16, Revision B.01,
 Gaussian 16:  ES64L-G16RevB.01 20-Dec-2017

 -------------------------
 #P B3LYP/6-311+g(d) force
 -------------------------

 ------------------------------
 Gaussian input prepared by ASE
 ------------------------------
 Symbolic Z-matrix:
 Charge =  0 Multiplicity = 2

                         Standard orientation:
 ---------------------------------------------------------------------
 Center     Atomic      Atomic             Coordinates (Angstroms)
 Number     Number       Type             X           Y           Z
 ---------------------------------------------------------------------
      1         11           0       -0.262250   -1.786417   -0.224635
      2         11           0        1.171765    2.165151    1.140846
      3         11           0       -3.224826   -1.335769   -0.141778
      4         11           0       -1.384886    0.592844    1.226161
      5         11           0       -0.651512    2.169554   -1.226029
      6         11           0        1.695866    0.295722   -1.149525
      7         11           0        2.655844   -2.101085    0.374960
 ---------------------------------------------------------------------

 SCF Done:  E(UB3LYP) =  -1136.10999456     A.U. after   19 cycles

 The electronic state is 2-A.
 Alpha  occ. eigenvalues --  -38.44077 -38.43880 -38.43752 -38.43721 -38.43413
 Alpha  occ. eigenvalues --  -38.43378 -38.43306  -2.19972  -2.19777  -2.19760
 Alpha  occ. eigenvalues --   -2.19729  -2.19509  -2.19476  -2.19375  -1.13719
 Alpha  occ. eigenvalues --   -1.13661  -1.13619  -1.13585  -1.13536  -1.13482
 Alpha  occ. eigenvalues --   -1.13461  -1.13423  -1.13415  -1.13403  -1.13388
 Alpha  occ. eigenvalues --   -1.13272  -1.13246  -1.13215  -1.13117  -1.13091
 Alpha  occ. eigenvalues --   -1.13082  -1.13045  -1.13000  -1.12983  -1.12934
 Alpha  occ. eigenvalues --   -0.19730  -0.13474  -0.13223  -0.10779
 Alpha virt. eigenvalues --   -0.05594  -0.05295  -0.04324  -0.03171  -0.03067
 Alpha virt. eigenvalues --   -0.02005  -0.01500  -0.01105  -0.00318   0.00141
 Alpha virt. eigenvalues --    0.00303   0.00463   0.00768   0.00875   0.00949

  Beta  occ. eigenvalues --  -38.44077 -38.43877 -38.43710 -38.43675 -38.43368
  Beta  occ. eigenvalues --  -38.43336 -38.43293  -2.19974  -2.19772  -2.19687
  Beta  occ. eigenvalues --   -2.19649  -2.19431  -2.19406  -2.19354  -1.13716
  Beta  occ. eigenvalues --   -1.13657  -1.13583  -1.13576  -1.13525  -1.13460
  Beta  occ. eigenvalues --   -1.13409  -1.13378  -1.13364  -1.13352  -1.13330
  Beta  occ. eigenvalues --   -1.13237  -1.13187  -1.13172  -1.13052  -1.13030
  Beta  occ. eigenvalues --   -1.13020  -1.12983  -1.12956  -1.12946  -1.12914
  Beta  occ. eigenvalues --   -0.18985  -0.13331  -0.13002
  Beta virt. eigenvalues --   -0.06633  -0.05472  -0.05183  -0.04292  -0.02519
  Beta virt. eigenvalues --   -0.02463  -0.01482  -0.01257  -0.00751  -0.00118
  Beta virt. eigenvalues --    0.00212   0.00373   0.00532   0.00783   0.00953

 Mulliken charges and spin densities:
               1          2
     1  Na  -1.378444   0.219429
     2  Na   0.198263   0.261332
     3  Na   0.850046  -0.072111
     4  Na  -0.181703   0.120995
     5  Na  -0.184317   0.298981
     6  Na   0.140570   0.130281
     7  Na   0.555585   0.041092
 Sum of Mulliken charges =  -0.00000   1.00000

 Dipole moment (field-independent basis, Debye):
    X=             -0.1560    Y=             -0.0849    Z=              0.0397  Tot=              0.1820
 Quadrupole moment (field-independent basis, Debye-Ang):
   XX=            -55.8038   YY=            -64.5166   ZZ=            -73.0617
   XY=              0.1221   XZ=              3.8859   YZ=             -0.8851

 Normal termination of Gaussian 16 at Mon Nov 13 16:57:01 2023.
