 Gaussian 16, Revision B.01,
 Gaussian 16:  ES64L-G16RevB.01 20-Dec-2017

 -------------------------
 #P B3LYP/6-311+g(d) force
 -------------------------

 ------------------------------
 Gaussian input prepared by ASE
 ------------------------------
 Symbolic Z-matrix:
 Charge =  0 Multiplicity = 2

                         Standard orientation:
 ---------------------------------------------------------------------
 Center     Atomic      Atomic             Coordinates (Angstroms)
 Number     Number       Type             X           Y           Z
 ---------------------------------------------------------------------
      1         11           0       -0.099744    0.070442   -1.549561
      2         11           0        1.867408   -1.118612   -0.338054
      3         11           0       -2.391376   -0.402231   -0.262473
      4         11           0       -1.041330    1.926843    0.290594
      5         11           0        1.634095    1.483487   -0.226370
      6         11           0        0.370980    0.070218    1.731093
      7         11           0       -0.340033   -2.030148    0.354772
 ---------------------------------------------------------------------

 SCF Done:  E(UB3LYP) =  -1136.01626464     A.U. after   23 cycles

 The electronic state is 2-A.
 Alpha  occ. eigenvalues --  -38.45183 -38.45042 -38.44936 -38.44601 -38.44450
 Alpha  occ. eigenvalues --  -38.44352 -38.43978  -2.21738  -2.21447  -2.21293
 Alpha  occ. eigenvalues --   -2.20912  -2.20752  -2.20521  -2.20216  -1.15953
 Alpha  occ. eigenvalues --   -1.15671  -1.15535  -1.15434  -1.15287  -1.15266
 Alpha  occ. eigenvalues --   -1.15115  -1.14854  -1.14702  -1.14643  -1.14428
 Alpha  occ. eigenvalues --   -1.14386  -1.14337  -1.14295  -1.14259  -1.14189
 Alpha  occ. eigenvalues --   -1.14104  -1.13990  -1.13837  -1.13806  -1.13672
 Alpha  occ. eigenvalues --   -0.22836  -0.13994  -0.13513  -0.12894
 Alpha virt. eigenvalues --   -0.05187  -0.04174  -0.04070  -0.03766  -0.03547
 Alpha virt. eigenvalues --   -0.02908  -0.00700  -0.00454  -0.00089   0.00307
 Alpha virt. eigenvalues --    0.00994   0.01086   0.01165   0.01267   0.01327

  Beta  occ. eigenvalues --  -38.45086 -38.44941 -38.44911 -38.44578 -38.44429
  Beta  occ. eigenvalues --  -38.44340 -38.43960  -2.21571  -2.21294  -2.21226
  Beta  occ. eigenvalues --   -2.20878  -2.20722  -2.20505  -2.20192  -1.15879
  Beta  occ. eigenvalues --   -1.15586  -1.15434  -1.15323  -1.15224  -1.15153
  Beta  occ. eigenvalues --   -1.15009  -1.14783  -1.14622  -1.14590  -1.14398
  Beta  occ. eigenvalues --   -1.14316  -1.14301  -1.14276  -1.14175  -1.14169
  Beta  occ. eigenvalues --   -1.14049  -1.13972  -1.13825  -1.13726  -1.13664
  Beta  occ. eigenvalues --   -0.22011  -0.13582  -0.13110
  Beta virt. eigenvalues --   -0.08534  -0.05211  -0.04131  -0.04037  -0.02768
  Beta virt. eigenvalues --   -0.02559  -0.01786  -0.00647  -0.00413   0.00054
  Beta virt. eigenvalues --    0.00329   0.00982   0.01073   0.01206   0.01291

 Mulliken charges and spin densities:
               1          2
     1  Na  -0.561872   0.347849
     2  Na   0.047674  -0.007603
     3  Na  -0.109578  -0.000837
     4  Na   0.310178   0.096805
     5  Na   0.084389  -0.037134
     6  Na  -0.385064   0.431691
     7  Na   0.614272   0.169229
 Sum of Mulliken charges =  -0.00000   1.00000

 Dipole moment (field-independent basis, Debye):
    X=             -0.3457    Y=              0.1497    Z=              0.2870  Tot=              0.4736
 Quadrupole moment (field-independent basis, Debye-Ang):
   XX=            -64.0923   YY=            -68.4746   ZZ=            -68.0146
   XY=              0.1874   XZ=             -0.5901   YZ=              0.1468

 Normal termination of Gaussian 16 at Mon Nov 13 19:55:15 2023.
