 Gaussian 16, Revision B.01,
 Gaussian 16:  ES64L-G16RevB.01 20-Dec-2017

 -------------------------
 #P B3LYP/6-311+g(d) force
 -------------------------

 ------------------------------
 Gaussian input prepared by ASE
 ------------------------------
 Symbolic Z-matrix:
 Charge =  0 Multiplicity = 2

                         Standard orientation:
 ---------------------------------------------------------------------
 Center     Atomic      Atomic             Coordinates (Angstroms)
 Number     Number       Type             X           Y           Z
 ---------------------------------------------------------------------
      1         11           0       -1.094000    2.112784   -0.331826
      2         11           0       -1.012763   -1.625405   -1.838087
      3         11           0       -2.936855   -0.234680    0.000347
      4         11           0       -1.025981   -1.059175    2.166690
      5         11           0        1.819547    2.681941    0.002039
      6         11           0        0.851410   -0.150530    0.002794
      7         11           0        3.398642   -1.724934   -0.001957
 ---------------------------------------------------------------------

 SCF Done:  E(UB3LYP) =  -1136.10585085     A.U. after   22 cycles

 The electronic state is 2-A.
 Alpha  occ. eigenvalues --  -38.44641 -38.44549 -38.44463 -38.44189 -38.43667
 Alpha  occ. eigenvalues --  -38.43150 -38.42570  -2.20566  -2.20466  -2.20248
 Alpha  occ. eigenvalues --   -2.20191  -2.19554  -2.19141  -2.18769  -1.14269
 Alpha  occ. eigenvalues --   -1.14238  -1.14183  -1.14149  -1.14141  -1.14057
 Alpha  occ. eigenvalues --   -1.13953  -1.13897  -1.13881  -1.13879  -1.13820
 Alpha  occ. eigenvalues --   -1.13791  -1.13315  -1.13207  -1.13185  -1.12874
 Alpha  occ. eigenvalues --   -1.12770  -1.12751  -1.12474  -1.12428  -1.12369
 Alpha  occ. eigenvalues --   -0.19353  -0.13337  -0.12072  -0.11509
 Alpha virt. eigenvalues --   -0.06218  -0.05326  -0.03785  -0.03290  -0.02776
 Alpha virt. eigenvalues --   -0.02599  -0.01862  -0.01043  -0.00255   0.00047
 Alpha virt. eigenvalues --    0.00219   0.00243   0.00533   0.00744   0.00966

  Beta  occ. eigenvalues --  -38.44538 -38.44475 -38.44469 -38.44170 -38.43673
  Beta  occ. eigenvalues --  -38.43140 -38.42548  -2.20377  -2.20321  -2.20271
  Beta  occ. eigenvalues --   -2.20166  -2.19565  -2.19124  -2.18737  -1.14155
  Beta  occ. eigenvalues --   -1.14108  -1.14089  -1.14047  -1.14010  -1.13969
  Beta  occ. eigenvalues --   -1.13947  -1.13909  -1.13897  -1.13867  -1.13773
  Beta  occ. eigenvalues --   -1.13725  -1.13320  -1.13216  -1.13188  -1.12865
  Beta  occ. eigenvalues --   -1.12765  -1.12714  -1.12422  -1.12384  -1.12354
  Beta  occ. eigenvalues --   -0.18540  -0.13150  -0.11947
  Beta virt. eigenvalues --   -0.07322  -0.06099  -0.05108  -0.03631  -0.02610
  Beta virt. eigenvalues --   -0.02060  -0.01973  -0.01626  -0.00991  -0.00009
  Beta virt. eigenvalues --    0.00060   0.00272   0.00339   0.00738   0.00766

 Mulliken charges and spin densities:
               1          2
     1  Na   2.771944   0.306753
     2  Na   0.054460   0.381219
     3  Na   0.914707   0.074154
     4  Na   0.473850   0.430189
     5  Na   0.480596  -0.306564
     6  Na  -3.992074   0.250770
     7  Na  -0.703483  -0.136521
 Sum of Mulliken charges =  -0.00000   1.00000

 Dipole moment (field-independent basis, Debye):
    X=              0.0927    Y=             -0.4444    Z=              0.0711  Tot=              0.4595
 Quadrupole moment (field-independent basis, Debye-Ang):
   XX=            -54.8139   YY=            -67.9559   ZZ=            -69.7188
   XY=              0.3542   XZ=              0.6351   YZ=              0.6707

 Normal termination of Gaussian 16 at Mon Nov 13 18:38:59 2023.
