 Gaussian 16, Revision B.01,
 Gaussian 16:  ES64L-G16RevB.01 20-Dec-2017

 -------------------------
 #P B3LYP/6-311+g(d) force
 -------------------------

 ------------------------------
 Gaussian input prepared by ASE
 ------------------------------
 Symbolic Z-matrix:
 Charge =  0 Multiplicity = 2

                         Standard orientation:
 ---------------------------------------------------------------------
 Center     Atomic      Atomic             Coordinates (Angstroms)
 Number     Number       Type             X           Y           Z
 ---------------------------------------------------------------------
      1         11           0       -0.081503    0.167072   -1.552823
      2         11           0       -1.424555    1.646198    0.067285
      3         11           0       -2.455130   -0.698680    0.058581
      4         11           0       -0.043459    0.046596    1.564082
      5         11           0        2.316546   -0.949429    0.131631
      6         11           0       -0.010490   -1.874969   -0.194645
      7         11           0        1.698591    1.663213   -0.074111
 ---------------------------------------------------------------------

 SCF Done:  E(UB3LYP) =  -1136.02065415     A.U. after   22 cycles

 The electronic state is 2-A.
 Alpha  occ. eigenvalues --  -38.45015 -38.44676 -38.44669 -38.44611 -38.44591
 Alpha  occ. eigenvalues --  -38.44529 -38.43838  -2.21541  -2.21140  -2.21041
 Alpha  occ. eigenvalues --   -2.20868  -2.20847  -2.20744  -2.20011  -1.15830
 Alpha  occ. eigenvalues --   -1.15562  -1.15382  -1.15159  -1.15118  -1.15091
 Alpha  occ. eigenvalues --   -1.14865  -1.14761  -1.14559  -1.14507  -1.14439
 Alpha  occ. eigenvalues --   -1.14352  -1.14330  -1.14293  -1.14255  -1.14184
 Alpha  occ. eigenvalues --   -1.14117  -1.14031  -1.13678  -1.13617  -1.13556
 Alpha  occ. eigenvalues --   -0.22590  -0.14670  -0.12942  -0.12377
 Alpha virt. eigenvalues --   -0.05562  -0.04367  -0.03953  -0.03855  -0.02910
 Alpha virt. eigenvalues --   -0.02381  -0.01295  -0.00428  -0.00016   0.00304
 Alpha virt. eigenvalues --    0.00777   0.00895   0.01036   0.01165   0.01256

  Beta  occ. eigenvalues --  -38.44919 -38.44656 -38.44650 -38.44577 -38.44517
  Beta  occ. eigenvalues --  -38.44510 -38.43825  -2.21380  -2.21062  -2.20928
  Beta  occ. eigenvalues --   -2.20836  -2.20822  -2.20718  -2.19994  -1.15750
  Beta  occ. eigenvalues --   -1.15474  -1.15328  -1.15074  -1.15041  -1.15002
  Beta  occ. eigenvalues --   -1.14812  -1.14704  -1.14513  -1.14465  -1.14357
  Beta  occ. eigenvalues --   -1.14265  -1.14261  -1.14242  -1.14191  -1.14106
  Beta  occ. eigenvalues --   -1.14092  -1.14022  -1.13667  -1.13558  -1.13545
  Beta  occ. eigenvalues --   -0.21774  -0.14229  -0.12560
  Beta virt. eigenvalues --   -0.08064  -0.05614  -0.04333  -0.03785  -0.02891
  Beta virt. eigenvalues --   -0.01989  -0.01337  -0.01208  -0.00399   0.00119
  Beta virt. eigenvalues --    0.00331   0.00781   0.00886   0.01045   0.01181

 Mulliken charges and spin densities:
               1          2
     1  Na  -0.510498   0.422125
     2  Na   0.180439   0.055814
     3  Na   0.035532  -0.037676
     4  Na  -0.419791   0.446989
     5  Na  -0.084454  -0.025919
     6  Na   0.610446   0.132524
     7  Na   0.188326   0.006143
 Sum of Mulliken charges =  -0.00000   1.00000

 Dipole moment (field-independent basis, Debye):
    X=              0.1378    Y=              0.2474    Z=              0.1062  Tot=              0.3025
 Quadrupole moment (field-independent basis, Debye-Ang):
   XX=            -57.3168   YY=            -70.8496   ZZ=            -70.3791
   XY=              0.8100   XZ=             -0.0052   YZ=             -0.0101

 Normal termination of Gaussian 16 at Mon Nov 13 16:44:46 2023.
