 Gaussian 16, Revision B.01,
 Gaussian 16:  ES64L-G16RevB.01 20-Dec-2017

 -------------------------
 #P B3LYP/6-311+g(d) force
 -------------------------

 ------------------------------
 Gaussian input prepared by ASE
 ------------------------------
 Symbolic Z-matrix:
 Charge =  0 Multiplicity = 2

                         Standard orientation:
 ---------------------------------------------------------------------
 Center     Atomic      Atomic             Coordinates (Angstroms)
 Number     Number       Type             X           Y           Z
 ---------------------------------------------------------------------
      1         11           0       -0.042130   -0.001230    1.448413
      2         11           0       -2.264710    1.468166   -0.001294
      3         11           0       -2.269189   -1.462660    0.001191
      4         11           0       -0.043755   -0.000927   -1.447732
      5         11           0        1.000770   -2.450407   -0.000509
      6         11           0        2.613237   -0.001915   -0.001226
      7         11           0        1.005777    2.448974    0.001156
 ---------------------------------------------------------------------

 SCF Done:  E(UB3LYP) =  -1136.10616004     A.U. after   22 cycles

 The electronic state is 2-A.
 Alpha  occ. eigenvalues --  -38.43740 -38.43661 -38.43660 -38.43288 -38.43288
 Alpha  occ. eigenvalues --  -38.42938 -38.42938  -2.19820  -2.19696  -2.19668
 Alpha  occ. eigenvalues --   -2.19313  -2.19312  -2.19243  -2.19209  -1.13630
 Alpha  occ. eigenvalues --   -1.13598  -1.13553  -1.13457  -1.13386  -1.13377
 Alpha  occ. eigenvalues --   -1.13363  -1.13313  -1.13188  -1.13147  -1.13092
 Alpha  occ. eigenvalues --   -1.13002  -1.12970  -1.12964  -1.12920  -1.12898
 Alpha  occ. eigenvalues --   -1.12807  -1.12799  -1.12768  -1.12752  -1.12744
 Alpha  occ. eigenvalues --   -0.20849  -0.13908  -0.13133  -0.10873
 Alpha virt. eigenvalues --   -0.05260  -0.04921  -0.04476  -0.03200  -0.02669
 Alpha virt. eigenvalues --   -0.01791  -0.01260  -0.01005   0.00085   0.00279
 Alpha virt. eigenvalues --    0.00299   0.00409   0.00924   0.01001   0.01042

  Beta  occ. eigenvalues --  -38.43727 -38.43651 -38.43649 -38.43278 -38.43278
  Beta  occ. eigenvalues --  -38.42860 -38.42860  -2.19804  -2.19682  -2.19655
  Beta  occ. eigenvalues --   -2.19299  -2.19297  -2.19107  -2.19070  -1.13616
  Beta  occ. eigenvalues --   -1.13587  -1.13550  -1.13392  -1.13379  -1.13368
  Beta  occ. eigenvalues --   -1.13307  -1.13258  -1.13186  -1.13100  -1.13070
  Beta  occ. eigenvalues --   -1.12942  -1.12938  -1.12906  -1.12899  -1.12895
  Beta  occ. eigenvalues --   -1.12717  -1.12699  -1.12669  -1.12666  -1.12658
  Beta  occ. eigenvalues --   -0.20092  -0.13549  -0.12809
  Beta virt. eigenvalues --   -0.06790  -0.05281  -0.04900  -0.04475  -0.02266
  Beta virt. eigenvalues --   -0.01834  -0.01181  -0.00952  -0.00802   0.00207
  Beta virt. eigenvalues --    0.00233   0.00286   0.00430   0.00943   0.01012

 Mulliken charges and spin densities:
               1          2
     1  Na  -0.860771   0.479406
     2  Na   0.318527  -0.011778
     3  Na   0.320029  -0.012056
     4  Na  -0.861775   0.478261
     5  Na   0.369202  -0.000231
     6  Na   0.348518   0.066646
     7  Na   0.366272  -0.000249
 Sum of Mulliken charges =  -0.00000   1.00000

 Dipole moment (field-independent basis, Debye):
    X=             -0.1777    Y=              0.0006    Z=              0.0006  Tot=              0.1777
 Quadrupole moment (field-independent basis, Debye-Ang):
   XX=            -57.2857   YY=            -60.8124   ZZ=            -75.1144
   XY=              0.0024   XZ=             -0.0038   YZ=              0.0002

 Normal termination of Gaussian 16 at Mon Nov 13 20:15:41 2023.
