 Gaussian 16, Revision B.01,
 Gaussian 16:  ES64L-G16RevB.01 20-Dec-2017

 -------------------------
 #P B3LYP/6-311+g(d) force
 -------------------------

 ------------------------------
 Gaussian input prepared by ASE
 ------------------------------
 Symbolic Z-matrix:
 Charge =  0 Multiplicity = 2

                         Standard orientation:
 ---------------------------------------------------------------------
 Center     Atomic      Atomic             Coordinates (Angstroms)
 Number     Number       Type             X           Y           Z
 ---------------------------------------------------------------------
      1         11           0       -1.386487   -0.014220    1.656824
      2         11           0       -1.584506   -1.506224   -0.935341
      3         11           0       -4.067749   -0.455894    0.382540
      4         11           0       -2.110735    1.444561   -0.863016
      5         11           0        0.678319    0.410051   -0.479196
      6         11           0        3.449445    1.336369    0.204473
      7         11           0        5.021712   -1.214644    0.033716
 ---------------------------------------------------------------------

 SCF Done:  E(UB3LYP) =  -1136.07935181     A.U. after   30 cycles

 The electronic state is 2-A.
 Alpha  occ. eigenvalues --  -38.46052 -38.45674 -38.44020 -38.43848 -38.43675
 Alpha  occ. eigenvalues --  -38.42883 -38.42397  -2.22126  -2.21759  -2.19975
 Alpha  occ. eigenvalues --   -2.19902  -2.19478  -2.18892  -2.18501  -1.15883
 Alpha  occ. eigenvalues --   -1.15808  -1.15738  -1.15462  -1.15400  -1.15378
 Alpha  occ. eigenvalues --   -1.13659  -1.13637  -1.13609  -1.13583  -1.13569
 Alpha  occ. eigenvalues --   -1.13539  -1.13129  -1.13127  -1.13114  -1.12594
 Alpha  occ. eigenvalues --   -1.12549  -1.12507  -1.12233  -1.12152  -1.12104
 Alpha  occ. eigenvalues --   -0.19981  -0.14430  -0.11147  -0.10923
 Alpha virt. eigenvalues --   -0.08048  -0.05651  -0.03556  -0.03143  -0.02754
 Alpha virt. eigenvalues --   -0.02073  -0.01647  -0.01522  -0.01067  -0.00772
 Alpha virt. eigenvalues --   -0.00303   0.00181   0.00260   0.00535   0.00711

  Beta  occ. eigenvalues --  -38.46012 -38.45640 -38.44017 -38.43748 -38.43679
  Beta  occ. eigenvalues --  -38.42869 -38.42381  -2.22061  -2.21703  -2.19896
  Beta  occ. eigenvalues --   -2.19793  -2.19485  -2.18873  -2.18480  -1.15847
  Beta  occ. eigenvalues --   -1.15710  -1.15688  -1.15421  -1.15345  -1.15310
  Beta  occ. eigenvalues --   -1.13607  -1.13578  -1.13543  -1.13534  -1.13512
  Beta  occ. eigenvalues --   -1.13432  -1.13134  -1.13131  -1.13118  -1.12587
  Beta  occ. eigenvalues --   -1.12542  -1.12444  -1.12216  -1.12138  -1.12044
  Beta  occ. eigenvalues --   -0.19161  -0.14309  -0.10835
  Beta virt. eigenvalues --   -0.07807  -0.06813  -0.05484  -0.03384  -0.03100
  Beta virt. eigenvalues --   -0.02395  -0.01658  -0.01077  -0.00957  -0.00651
  Beta virt. eigenvalues --   -0.00590  -0.00188   0.00273   0.00381   0.00599

 Mulliken charges and spin densities:
               1          2
     1  Na  -0.307775   0.308858
     2  Na  -0.132508   0.342569
     3  Na   0.692114   0.100055
     4  Na   0.709237   0.411954
     5  Na  -0.801736  -0.023104
     6  Na  -0.102602  -0.100110
     7  Na  -0.056730  -0.040223
 Sum of Mulliken charges =  -0.00000   1.00000

 Dipole moment (field-independent basis, Debye):
    X=             -0.6761    Y=              0.2501    Z=              0.0311  Tot=              0.7215
 Quadrupole moment (field-independent basis, Debye-Ang):
   XX=            -75.8144   YY=            -66.5046   ZZ=            -65.6395
   XY=             -5.3500   XZ=              3.4973   YZ=             -5.5267

 Normal termination of Gaussian 16 at Mon Nov 13 16:25:16 2023.
