 Gaussian 16, Revision B.01,
 Gaussian 16:  ES64L-G16RevB.01 20-Dec-2017

 -------------------------
 #P B3LYP/6-311+g(d) force
 -------------------------

 ------------------------------
 Gaussian input prepared by ASE
 ------------------------------
 Symbolic Z-matrix:
 Charge =  0 Multiplicity = 2

                         Standard orientation:
 ---------------------------------------------------------------------
 Center     Atomic      Atomic             Coordinates (Angstroms)
 Number     Number       Type             X           Y           Z
 ---------------------------------------------------------------------
      1         11           0        0.621047    1.499684    0.074571
      2         11           0       -0.304213   -0.053164   -1.925465
      3         11           0        3.117329    0.191417    0.005695
      4         11           0        0.853482   -1.489083   -0.009669
      5         11           0       -0.400673   -0.169842    1.926206
      6         11           0       -1.829937   -1.313212   -0.072767
      7         11           0       -2.057035    1.334201    0.001430
 ---------------------------------------------------------------------

 SCF Done:  E(UB3LYP) =  -1136.03588031     A.U. after   39 cycles

 The electronic state is 2-A.
 Alpha  occ. eigenvalues --  -38.45355 -38.45155 -38.44959 -38.44222 -38.43985
 Alpha  occ. eigenvalues --  -38.43614 -38.43567  -2.21643  -2.21443  -2.20917
 Alpha  occ. eigenvalues --   -2.20543  -2.20201  -2.19992  -2.19931  -1.15586
 Alpha  occ. eigenvalues --   -1.15362  -1.15322  -1.15256  -1.15140  -1.15080
 Alpha  occ. eigenvalues --   -1.14718  -1.14617  -1.14507  -1.14396  -1.14297
 Alpha  occ. eigenvalues --   -1.14097  -1.14090  -1.13773  -1.13693  -1.13655
 Alpha  occ. eigenvalues --   -1.13599  -1.13552  -1.13522  -1.13435  -1.13350
 Alpha  occ. eigenvalues --   -0.22340  -0.14456  -0.13189  -0.11927
 Alpha virt. eigenvalues --   -0.05994  -0.04171  -0.03924  -0.03632  -0.02869
 Alpha virt. eigenvalues --   -0.02592  -0.01635  -0.00313  -0.00174   0.00262
 Alpha virt. eigenvalues --    0.00649   0.00933   0.00984   0.01035   0.01154

  Beta  occ. eigenvalues --  -38.45249 -38.45059 -38.44964 -38.44196 -38.43965
  Beta  occ. eigenvalues --  -38.43586 -38.43535  -2.21454  -2.21271  -2.20927
  Beta  occ. eigenvalues --   -2.20505  -2.20173  -2.19951  -2.19885  -1.15477
  Beta  occ. eigenvalues --   -1.15258  -1.15177  -1.15122  -1.15012  -1.14948
  Beta  occ. eigenvalues --   -1.14723  -1.14625  -1.14499  -1.14376  -1.14268
  Beta  occ. eigenvalues --   -1.14072  -1.13995  -1.13692  -1.13676  -1.13640
  Beta  occ. eigenvalues --   -1.13508  -1.13485  -1.13436  -1.13417  -1.13329
  Beta  occ. eigenvalues --   -0.21417  -0.14121  -0.11636
  Beta virt. eigenvalues --   -0.08710  -0.05943  -0.03685  -0.03345  -0.03192
  Beta virt. eigenvalues --   -0.02069  -0.01909  -0.01562  -0.00189  -0.00060
  Beta virt. eigenvalues --    0.00302   0.00680   0.00958   0.01047   0.01141

 Mulliken charges and spin densities:
               1          2
     1  Na  -0.376785   0.090597
     2  Na   0.273733   0.449169
     3  Na  -0.227917  -0.071192
     4  Na  -0.611054  -0.051830
     5  Na   0.312816   0.479139
     6  Na   0.360669   0.078755
     7  Na   0.268537   0.025362
 Sum of Mulliken charges =  -0.00000   1.00000

 Dipole moment (field-independent basis, Debye):
    X=              0.6715    Y=              0.1566    Z=              0.0136  Tot=              0.6896
 Quadrupole moment (field-independent basis, Debye-Ang):
   XX=            -54.3244   YY=            -77.0693   ZZ=            -65.7155
   XY=             -0.1315   XZ=              0.0273   YZ=              3.9485

 Normal termination of Gaussian 16 at Mon Nov 13 20:21:46 2023.
