 Gaussian 16, Revision B.01,
 Gaussian 16:  ES64L-G16RevB.01 20-Dec-2017

 -------------------------
 #P B3LYP/6-311+g(d) force
 -------------------------

 ------------------------------
 Gaussian input prepared by ASE
 ------------------------------
 Symbolic Z-matrix:
 Charge =  0 Multiplicity = 2

                         Standard orientation:
 ---------------------------------------------------------------------
 Center     Atomic      Atomic             Coordinates (Angstroms)
 Number     Number       Type             X           Y           Z
 ---------------------------------------------------------------------
      1         11           0       -0.519125   -0.733808   -0.105183
      2         11           0       -3.376234   -1.644706    0.005860
      3         11           0       -2.666124    0.905844   -1.402214
      4         11           0       -0.751033    2.191286    0.518791
      5         11           0        0.956400    0.420290    2.238330
      6         11           0        2.372670   -1.404156    0.324597
      7         11           0        3.983446    0.265249   -1.580181
 ---------------------------------------------------------------------

 SCF Done:  E(UB3LYP) =  -1136.09688899     A.U. after   22 cycles

 The electronic state is 2-A.
 Alpha  occ. eigenvalues --  -38.44424 -38.44325 -38.44234 -38.43982 -38.43736
 Alpha  occ. eigenvalues --  -38.43726 -38.43095  -2.20419  -2.20163  -2.20155
 Alpha  occ. eigenvalues --   -2.20135  -2.19720  -2.19702  -2.19087  -1.14213
 Alpha  occ. eigenvalues --   -1.14113  -1.14056  -1.13948  -1.13863  -1.13842
 Alpha  occ. eigenvalues --   -1.13837  -1.13781  -1.13779  -1.13750  -1.13742
 Alpha  occ. eigenvalues --   -1.13717  -1.13491  -1.13387  -1.13370  -1.13347
 Alpha  occ. eigenvalues --   -1.13316  -1.13244  -1.12777  -1.12718  -1.12695
 Alpha  occ. eigenvalues --   -0.19033  -0.14770  -0.11689  -0.11409
 Alpha virt. eigenvalues --   -0.06344  -0.05402  -0.04162  -0.03385  -0.02904
 Alpha virt. eigenvalues --   -0.02284  -0.02077  -0.01029  -0.00649  -0.00112
 Alpha virt. eigenvalues --    0.00106   0.00294   0.00562   0.00723   0.00772

  Beta  occ. eigenvalues --  -38.44389 -38.44253 -38.44201 -38.43949 -38.43733
  Beta  occ. eigenvalues --  -38.43706 -38.43069  -2.20358  -2.20110  -2.20075
  Beta  occ. eigenvalues --   -2.20020  -2.19711  -2.19679  -2.19040  -1.14177
  Beta  occ. eigenvalues --   -1.14048  -1.14011  -1.13900  -1.13824  -1.13777
  Beta  occ. eigenvalues --   -1.13758  -1.13709  -1.13694  -1.13689  -1.13686
  Beta  occ. eigenvalues --   -1.13671  -1.13476  -1.13376  -1.13371  -1.13307
  Beta  occ. eigenvalues --   -1.13284  -1.13219  -1.12746  -1.12681  -1.12657
  Beta  occ. eigenvalues --   -0.18443  -0.14284  -0.11385
  Beta virt. eigenvalues --   -0.07730  -0.06057  -0.04856  -0.03963  -0.03024
  Beta virt. eigenvalues --   -0.02660  -0.01825  -0.01775  -0.00595  -0.00557
  Beta virt. eigenvalues --    0.00109   0.00180   0.00494   0.00712   0.00762

 Mulliken charges and spin densities:
               1          2
     1  Na  -1.853495   0.687604
     2  Na  -0.136000  -0.130266
     3  Na   0.820103   0.031680
     4  Na   0.127890   0.177088
     5  Na   0.302970   0.178608
     6  Na   0.663408  -0.317397
     7  Na   0.075124   0.372682
 Sum of Mulliken charges =  -0.00000   1.00000

 Dipole moment (field-independent basis, Debye):
    X=             -0.7507    Y=              0.5765    Z=              0.3848  Tot=              1.0218
 Quadrupole moment (field-independent basis, Debye-Ang):
   XX=            -61.5995   YY=            -70.6387   ZZ=            -66.6587
   XY=              2.7912   XZ=              1.5518   YZ=             -5.2090

 Normal termination of Gaussian 16 at Mon Nov 13 14:58:43 2023.
