 Gaussian 16, Revision B.01,
 Gaussian 16:  ES64L-G16RevB.01 20-Dec-2017

 -------------------------
 #P B3LYP/6-311+g(d) force
 -------------------------

 ------------------------------
 Gaussian input prepared by ASE
 ------------------------------
 Symbolic Z-matrix:
 Charge =  0 Multiplicity = 2

                         Standard orientation:
 ---------------------------------------------------------------------
 Center     Atomic      Atomic             Coordinates (Angstroms)
 Number     Number       Type             X           Y           Z
 ---------------------------------------------------------------------
      1         11           0       -0.135918   -2.097926   -0.287719
      2         11           0        2.825798   -2.059864   -0.762623
      3         11           0        2.654651    3.111832    0.157338
      4         11           0        1.312367    0.517603   -0.523270
      5         11           0       -0.176456   -0.161575    1.996375
      6         11           0       -2.716298   -0.797840    0.528374
      7         11           0       -3.764143    1.487770   -1.108473
 ---------------------------------------------------------------------

 SCF Done:  E(UB3LYP) =  -1136.09855992     A.U. after   25 cycles

 The electronic state is 2-A.
 Alpha  occ. eigenvalues --  -38.45198 -38.44814 -38.44221 -38.43827 -38.43725
 Alpha  occ. eigenvalues --  -38.43399 -38.43153  -2.21189  -2.20646  -2.20131
 Alpha  occ. eigenvalues --   -2.19819  -2.19800  -2.19236  -2.19198  -1.14916
 Alpha  occ. eigenvalues --   -1.14830  -1.14778  -1.14332  -1.14268  -1.14256
 Alpha  occ. eigenvalues --   -1.13868  -1.13791  -1.13749  -1.13601  -1.13525
 Alpha  occ. eigenvalues --   -1.13484  -1.13448  -1.13431  -1.13331  -1.13012
 Alpha  occ. eigenvalues --   -1.12936  -1.12872  -1.12840  -1.12836  -1.12747
 Alpha  occ. eigenvalues --   -0.18984  -0.14207  -0.11861  -0.11365
 Alpha virt. eigenvalues --   -0.06192  -0.05642  -0.04305  -0.03451  -0.02626
 Alpha virt. eigenvalues --   -0.02092  -0.02029  -0.01324  -0.00595  -0.00405
 Alpha virt. eigenvalues --   -0.00091   0.00106   0.00520   0.00613   0.00710

  Beta  occ. eigenvalues --  -38.45111 -38.44722 -38.44184 -38.43812 -38.43713
  Beta  occ. eigenvalues --  -38.43409 -38.43143  -2.21032  -2.20476  -2.20063
  Beta  occ. eigenvalues --   -2.19805  -2.19784  -2.19227  -2.19210  -1.14812
  Beta  occ. eigenvalues --   -1.14726  -1.14658  -1.14220  -1.14152  -1.14140
  Beta  occ. eigenvalues --   -1.13829  -1.13744  -1.13699  -1.13579  -1.13519
  Beta  occ. eigenvalues --   -1.13454  -1.13411  -1.13398  -1.13290  -1.13019
  Beta  occ. eigenvalues --   -1.12900  -1.12874  -1.12850  -1.12842  -1.12743
  Beta  occ. eigenvalues --   -0.18381  -0.13462  -0.11642
  Beta virt. eigenvalues --   -0.07785  -0.05841  -0.05480  -0.03838  -0.03159
  Beta virt. eigenvalues --   -0.02139  -0.01726  -0.01590  -0.01248  -0.00329
  Beta virt. eigenvalues --   -0.00162  -0.00002   0.00199   0.00592   0.00719

 Mulliken charges and spin densities:
               1          2
     1  Na   1.165032   0.119966
     2  Na   0.397474  -0.047176
     3  Na  -0.138179  -0.032767
     4  Na  -1.632259   0.229687
     5  Na  -0.192815   0.183323
     6  Na   0.511940   0.222918
     7  Na  -0.111193   0.324050
 Sum of Mulliken charges =  -0.00000   1.00000

 Dipole moment (field-independent basis, Debye):
    X=              0.0905    Y=             -0.3963    Z=              0.5235  Tot=              0.6628
 Quadrupole moment (field-independent basis, Debye-Ang):
   XX=            -62.7022   YY=            -66.9643   ZZ=            -68.1040
   XY=             -2.4686   XZ=              0.9907   YZ=             -1.4261

 Normal termination of Gaussian 16 at Mon Nov 13 15:13:02 2023.
