 Gaussian 16, Revision B.01,
 Gaussian 16:  ES64L-G16RevB.01 20-Dec-2017

 -------------------------
 #P B3LYP/6-311+g(d) force
 -------------------------

 ------------------------------
 Gaussian input prepared by ASE
 ------------------------------
 Symbolic Z-matrix:
 Charge =  0 Multiplicity = 2

                         Standard orientation:
 ---------------------------------------------------------------------
 Center     Atomic      Atomic             Coordinates (Angstroms)
 Number     Number       Type             X           Y           Z
 ---------------------------------------------------------------------
      1         11           0        0.890310    0.054718   -1.351680
      2         11           0       -1.074316   -1.834463   -0.933750
      3         11           0        2.848995   -1.278414    0.361411
      4         11           0        0.332118   -0.150486    1.330492
      5         11           0       -2.383457   -0.550978    1.122199
      6         11           0       -1.522467    1.257515   -0.774863
      7         11           0        0.908816    2.502108    0.246190
 ---------------------------------------------------------------------

 SCF Done:  E(UB3LYP) =  -1136.07663954     A.U. after   24 cycles

 The electronic state is 2-A.
 Alpha  occ. eigenvalues --  -38.44534 -38.44011 -38.43813 -38.43780 -38.43621
 Alpha  occ. eigenvalues --  -38.43459 -38.43225  -2.20646  -2.20179  -2.19975
 Alpha  occ. eigenvalues --   -2.19927  -2.19896  -2.19689  -2.19248  -1.14541
 Alpha  occ. eigenvalues --   -1.14351  -1.14307  -1.14216  -1.14033  -1.13954
 Alpha  occ. eigenvalues --   -1.13724  -1.13591  -1.13582  -1.13517  -1.13513
 Alpha  occ. eigenvalues --   -1.13498  -1.13471  -1.13446  -1.13423  -1.13318
 Alpha  occ. eigenvalues --   -1.13293  -1.13272  -1.12919  -1.12874  -1.12813
 Alpha  occ. eigenvalues --   -0.21195  -0.13796  -0.12550  -0.12085
 Alpha virt. eigenvalues --   -0.05373  -0.04449  -0.03729  -0.03489  -0.02821
 Alpha virt. eigenvalues --   -0.02705  -0.01264  -0.00715  -0.00213   0.00338
 Alpha virt. eigenvalues --    0.00713   0.00830   0.00926   0.01051   0.01069

  Beta  occ. eigenvalues --  -38.44495 -38.44007 -38.43744 -38.43742 -38.43553
  Beta  occ. eigenvalues --  -38.43427 -38.43219  -2.20579  -2.20062  -2.19923
  Beta  occ. eigenvalues --   -2.19852  -2.19834  -2.19638  -2.19241  -1.14497
  Beta  occ. eigenvalues --   -1.14277  -1.14258  -1.14144  -1.13935  -1.13881
  Beta  occ. eigenvalues --   -1.13675  -1.13557  -1.13518  -1.13499  -1.13462
  Beta  occ. eigenvalues --   -1.13447  -1.13385  -1.13376  -1.13363  -1.13281
  Beta  occ. eigenvalues --   -1.13261  -1.13179  -1.12911  -1.12839  -1.12809
  Beta  occ. eigenvalues --   -0.20367  -0.13560  -0.12289
  Beta virt. eigenvalues --   -0.07691  -0.05324  -0.04403  -0.03488  -0.02938
  Beta virt. eigenvalues --   -0.02082  -0.01551  -0.01150  -0.00686   0.00022
  Beta virt. eigenvalues --    0.00372   0.00717   0.00879   0.00924   0.01090

 Mulliken charges and spin densities:
               1          2
     1  Na  -0.410556  -0.034639
     2  Na  -0.319959   0.235814
     3  Na   0.095285   0.055221
     4  Na  -0.889255   0.410080
     5  Na   1.330805  -0.067602
     6  Na  -0.026980   0.371884
     7  Na   0.220660   0.029242
 Sum of Mulliken charges =  -0.00000   1.00000

 Dipole moment (field-independent basis, Debye):
    X=              0.2554    Y=             -0.1534    Z=              0.2402  Tot=              0.3827
 Quadrupole moment (field-independent basis, Debye-Ang):
   XX=            -58.1028   YY=            -67.3548   ZZ=            -68.8919
   XY=              0.1909   XZ=              0.3288   YZ=              0.8432

 Normal termination of Gaussian 16 at Mon Nov 13 20:22:34 2023.
