 Gaussian 16, Revision B.01,
 Gaussian 16:  ES64L-G16RevB.01 20-Dec-2017

 -------------------------
 #P B3LYP/6-311+g(d) force
 -------------------------

 ------------------------------
 Gaussian input prepared by ASE
 ------------------------------
 Symbolic Z-matrix:
 Charge =  0 Multiplicity = 2

                         Standard orientation:
 ---------------------------------------------------------------------
 Center     Atomic      Atomic             Coordinates (Angstroms)
 Number     Number       Type             X           Y           Z
 ---------------------------------------------------------------------
      1         11           0       -0.112366   -0.003587    1.711393
      2         11           0       -0.111583   -0.003503   -1.711213
      3         11           0       -2.097047   -1.433758   -0.000407
      4         11           0        0.625380   -2.047523    0.000382
      5         11           0       -1.880471    1.686289   -0.000327
      6         11           0        0.902584    1.905126    0.000454
      7         11           0        2.673504   -0.103044   -0.000283
 ---------------------------------------------------------------------

 SCF Done:  E(UB3LYP) =  -1136.07586030     A.U. after   19 cycles

 The electronic state is 2-A.
 Alpha  occ. eigenvalues --  -38.44093 -38.44092 -38.44043 -38.43798 -38.43582
 Alpha  occ. eigenvalues --  -38.43576 -38.43467  -2.20388  -2.20377  -2.20141
 Alpha  occ. eigenvalues --   -2.20025  -2.19799  -2.19666  -2.19560  -1.14372
 Alpha  occ. eigenvalues --   -1.14233  -1.14187  -1.14164  -1.14115  -1.14019
 Alpha  occ. eigenvalues --   -1.13983  -1.13867  -1.13703  -1.13655  -1.13573
 Alpha  occ. eigenvalues --   -1.13557  -1.13471  -1.13368  -1.13355  -1.13330
 Alpha  occ. eigenvalues --   -1.13286  -1.13200  -1.13180  -1.13168  -1.13095
 Alpha  occ. eigenvalues --   -0.21794  -0.13915  -0.13118  -0.12157
 Alpha virt. eigenvalues --   -0.05135  -0.04376  -0.04132  -0.03559  -0.03229
 Alpha virt. eigenvalues --   -0.02678  -0.01119  -0.00536  -0.00050   0.00346
 Alpha virt. eigenvalues --    0.00773   0.00820   0.01011   0.01143   0.01188

  Beta  occ. eigenvalues --  -38.44035 -38.43998 -38.43997 -38.43778 -38.43565
  Beta  occ. eigenvalues --  -38.43564 -38.43456  -2.20223  -2.20206  -2.20128
  Beta  occ. eigenvalues --   -2.19999  -2.19774  -2.19652  -2.19546  -1.14306
  Beta  occ. eigenvalues --   -1.14144  -1.14134  -1.14064  -1.14005  -1.13962
  Beta  occ. eigenvalues --   -1.13861  -1.13817  -1.13647  -1.13623  -1.13548
  Beta  occ. eigenvalues --   -1.13463  -1.13460  -1.13340  -1.13320  -1.13279
  Beta  occ. eigenvalues --   -1.13224  -1.13194  -1.13163  -1.13119  -1.13092
  Beta  occ. eigenvalues --   -0.20972  -0.13542  -0.12727
  Beta virt. eigenvalues --   -0.07943  -0.05180  -0.04360  -0.04105  -0.02597
  Beta virt. eigenvalues --   -0.02267  -0.01594  -0.01049  -0.00491   0.00088
  Beta virt. eigenvalues --    0.00377   0.00739   0.00806   0.01040   0.01144

 Mulliken charges and spin densities:
               1          2
     1  Na  -0.382473   0.465857
     2  Na  -0.382555   0.465959
     3  Na   0.157051  -0.031343
     4  Na   0.308985   0.084853
     5  Na   0.149875  -0.029002
     6  Na   0.320198   0.120507
     7  Na  -0.171081  -0.076832
 Sum of Mulliken charges =  -0.00000   1.00000

 Dipole moment (field-independent basis, Debye):
    X=             -0.1330    Y=             -0.0466    Z=             -0.0000  Tot=              0.1409
 Quadrupole moment (field-independent basis, Debye-Ang):
   XX=            -59.0626   YY=            -68.8567   ZZ=            -69.5920
   XY=             -0.3556   XZ=              0.0012   YZ=              0.0002

 Normal termination of Gaussian 16 at Mon Nov 13 19:23:15 2023.
