 Gaussian 16, Revision B.01,
 Gaussian 16:  ES64L-G16RevB.01 20-Dec-2017

 -------------------------
 #P B3LYP/6-311+g(d) force
 -------------------------

 ------------------------------
 Gaussian input prepared by ASE
 ------------------------------
 Symbolic Z-matrix:
 Charge =  0 Multiplicity = 2

                         Standard orientation:
 ---------------------------------------------------------------------
 Center     Atomic      Atomic             Coordinates (Angstroms)
 Number     Number       Type             X           Y           Z
 ---------------------------------------------------------------------
      1         11           0        2.030810    1.746650   -0.399413
      2         11           0        3.931059   -0.563941   -0.596908
      3         11           0        2.363154   -0.126066    1.922039
      4         11           0        0.973683   -1.056543   -0.566656
      5         11           0       -2.021389   -1.206395   -0.741221
      6         11           0       -2.734533    1.679944   -0.329019
      7         11           0       -4.542783   -0.473650    0.711178
 ---------------------------------------------------------------------

 SCF Done:  E(UB3LYP) =  -1136.07880696     A.U. after   34 cycles

 The electronic state is 2-A.
 Alpha  occ. eigenvalues --  -38.46536 -38.45111 -38.45000 -38.44266 -38.43348
 Alpha  occ. eigenvalues --  -38.43037 -38.41728  -2.22495  -2.21102  -2.20878
 Alpha  occ. eigenvalues --   -2.20283  -2.19261  -2.19032  -2.17836  -1.16218
 Alpha  occ. eigenvalues --   -1.16164  -1.16104  -1.14821  -1.14754  -1.14705
 Alpha  occ. eigenvalues --   -1.14605  -1.14549  -1.14484  -1.13977  -1.13959
 Alpha  occ. eigenvalues --   -1.13833  -1.13008  -1.12902  -1.12880  -1.12724
 Alpha  occ. eigenvalues --   -1.12685  -1.12641  -1.11531  -1.11511  -1.11447
 Alpha  occ. eigenvalues --   -0.18944  -0.15571  -0.10764  -0.10112
 Alpha virt. eigenvalues --   -0.07547  -0.05938  -0.04618  -0.03304  -0.02762
 Alpha virt. eigenvalues --   -0.01712  -0.01607  -0.01356  -0.00914  -0.00543
 Alpha virt. eigenvalues --   -0.00357   0.00140   0.00254   0.00520   0.00662

  Beta  occ. eigenvalues --  -38.46518 -38.45075 -38.44997 -38.44187 -38.43330
  Beta  occ. eigenvalues --  -38.43037 -38.41706  -2.22470  -2.21040  -2.20873
  Beta  occ. eigenvalues --   -2.20138  -2.19228  -2.19034  -2.17802  -1.16209
  Beta  occ. eigenvalues --   -1.16097  -1.16081  -1.14786  -1.14693  -1.14648
  Beta  occ. eigenvalues --   -1.14602  -1.14549  -1.14466  -1.13885  -1.13856
  Beta  occ. eigenvalues --   -1.13716  -1.12986  -1.12885  -1.12858  -1.12717
  Beta  occ. eigenvalues --   -1.12688  -1.12636  -1.11522  -1.11493  -1.11370
  Beta  occ. eigenvalues --   -0.18220  -0.15380  -0.10004
  Beta virt. eigenvalues --   -0.07362  -0.06937  -0.05189  -0.04511  -0.03189
  Beta virt. eigenvalues --   -0.02387  -0.01375  -0.01122  -0.00831  -0.00673
  Beta virt. eigenvalues --   -0.00391  -0.00161   0.00253   0.00293   0.00604

 Mulliken charges and spin densities:
               1          2
     1  Na  -0.265639   0.557179
     2  Na   1.446820   0.160207
     3  Na   0.542543   0.163105
     4  Na  -1.832609   0.062957
     5  Na   0.067998   0.075025
     6  Na  -0.284423  -0.004134
     7  Na   0.325310  -0.014339
 Sum of Mulliken charges =  -0.00000   1.00000

 Dipole moment (field-independent basis, Debye):
    X=              0.8230    Y=              0.1766    Z=              0.7369  Tot=              1.1187
 Quadrupole moment (field-independent basis, Debye-Ang):
   XX=            -70.7128   YY=            -72.8863   ZZ=            -61.4052
   XY=             -1.0317   XZ=             -3.7832   YZ=             -4.0362

 Normal termination of Gaussian 16 at Mon Nov 13 17:35:26 2023.
