 Gaussian 16, Revision B.01,
 Gaussian 16:  ES64L-G16RevB.01 20-Dec-2017

 -------------------------
 #P B3LYP/6-311+g(d) force
 -------------------------

 ------------------------------
 Gaussian input prepared by ASE
 ------------------------------
 Symbolic Z-matrix:
 Charge =  0 Multiplicity = 2

                         Standard orientation:
 ---------------------------------------------------------------------
 Center     Atomic      Atomic             Coordinates (Angstroms)
 Number     Number       Type             X           Y           Z
 ---------------------------------------------------------------------
      1         11           0       -0.479029    0.981389   -0.809906
      2         11           0        1.722701   -2.060893    1.584297
      3         11           0        1.797804    2.775458   -0.027176
      4         11           0        2.307554   -0.116129   -0.624622
      5         11           0       -0.023987   -1.984404   -0.854893
      6         11           0       -2.812063   -0.895270   -0.644364
      7         11           0       -2.512980    1.299850    1.376664
 ---------------------------------------------------------------------

 SCF Done:  E(UB3LYP) =  -1136.10592332     A.U. after   22 cycles

 The electronic state is 2-A.
 Alpha  occ. eigenvalues --  -38.44224 -38.44146 -38.43833 -38.43707 -38.43701
 Alpha  occ. eigenvalues --  -38.43245 -38.43138  -2.20139  -2.20121  -2.19783
 Alpha  occ. eigenvalues --   -2.19749  -2.19590  -2.19331  -2.19314  -1.13944
 Alpha  occ. eigenvalues --   -1.13866  -1.13799  -1.13771  -1.13733  -1.13654
 Alpha  occ. eigenvalues --   -1.13598  -1.13563  -1.13498  -1.13421  -1.13354
 Alpha  occ. eigenvalues --   -1.13317  -1.13292  -1.13213  -1.13190  -1.13121
 Alpha  occ. eigenvalues --   -1.12970  -1.12950  -1.12929  -1.12917  -1.12869
 Alpha  occ. eigenvalues --   -0.19367  -0.14171  -0.12766  -0.10819
 Alpha virt. eigenvalues --   -0.05545  -0.05185  -0.04237  -0.04133  -0.02726
 Alpha virt. eigenvalues --   -0.02079  -0.01440  -0.00902  -0.00092  -0.00001
 Alpha virt. eigenvalues --    0.00210   0.00356   0.00777   0.00824   0.00916

  Beta  occ. eigenvalues --  -38.44167 -38.44129 -38.43775 -38.43706 -38.43694
  Beta  occ. eigenvalues --  -38.43208 -38.43103  -2.20105  -2.20024  -2.19765
  Beta  occ. eigenvalues --   -2.19640  -2.19601  -2.19274  -2.19258  -1.13910
  Beta  occ. eigenvalues --   -1.13812  -1.13750  -1.13730  -1.13664  -1.13596
  Beta  occ. eigenvalues --   -1.13578  -1.13532  -1.13461  -1.13351  -1.13305
  Beta  occ. eigenvalues --   -1.13277  -1.13255  -1.13215  -1.13181  -1.13076
  Beta  occ. eigenvalues --   -1.12924  -1.12903  -1.12885  -1.12859  -1.12794
  Beta  occ. eigenvalues --   -0.18683  -0.13771  -0.12494
  Beta virt. eigenvalues --   -0.07081  -0.05372  -0.04963  -0.04052  -0.03495
  Beta virt. eigenvalues --   -0.02194  -0.01472  -0.01278  -0.00779   0.00058
  Beta virt. eigenvalues --    0.00128   0.00357   0.00434   0.00826   0.00937

 Mulliken charges and spin densities:
               1          2
     1  Na  -0.040607   0.474663
     2  Na  -0.356863   0.262331
     3  Na  -0.225363  -0.113200
     4  Na   0.261921   0.155642
     5  Na  -0.251984   0.155302
     6  Na   1.169849  -0.031093
     7  Na  -0.556954   0.096355
 Sum of Mulliken charges =  -0.00000   1.00000

 Dipole moment (field-independent basis, Debye):
    X=             -0.2606    Y=              0.1220    Z=              0.6966  Tot=              0.7537
 Quadrupole moment (field-independent basis, Debye-Ang):
   XX=            -60.4155   YY=            -66.2660   ZZ=            -69.3125
   XY=              3.4939   XZ=              0.3867   YZ=              1.7941

 Normal termination of Gaussian 16 at Mon Nov 13 16:18:00 2023.
