 Gaussian 16, Revision B.01,
 Gaussian 16:  ES64L-G16RevB.01 20-Dec-2017

 -------------------------
 #P B3LYP/6-311+g(d) force
 -------------------------

 ------------------------------
 Gaussian input prepared by ASE
 ------------------------------
 Symbolic Z-matrix:
 Charge =  0 Multiplicity = 2

                         Standard orientation:
 ---------------------------------------------------------------------
 Center     Atomic      Atomic             Coordinates (Angstroms)
 Number     Number       Type             X           Y           Z
 ---------------------------------------------------------------------
      1         11           0        1.044900    0.962444    0.538552
      2         11           0       -3.718345   -2.324704    0.219962
      3         11           0       -0.520956    3.462643    0.018969
      4         11           0       -2.561070    1.312095   -0.409727
      5         11           0       -0.944157   -1.200920   -0.080344
      6         11           0        2.003387   -1.770126   -0.181815
      7         11           0        4.696241   -0.441432   -0.105597
 ---------------------------------------------------------------------

 SCF Done:  E(UB3LYP) =  -1136.11074977     A.U. after   24 cycles

 The electronic state is 2-A.
 Alpha  occ. eigenvalues --  -38.44590 -38.44073 -38.44041 -38.43925 -38.43795
 Alpha  occ. eigenvalues --  -38.43674 -38.43024  -2.20504  -2.20094  -2.19872
 Alpha  occ. eigenvalues --   -2.19825  -2.19678  -2.19655  -2.19122  -1.14241
 Alpha  occ. eigenvalues --   -1.14172  -1.14134  -1.13894  -1.13766  -1.13748
 Alpha  occ. eigenvalues --   -1.13576  -1.13517  -1.13497  -1.13486  -1.13481
 Alpha  occ. eigenvalues --   -1.13451  -1.13447  -1.13326  -1.13306  -1.13277
 Alpha  occ. eigenvalues --   -1.13272  -1.13206  -1.12802  -1.12751  -1.12744
 Alpha  occ. eigenvalues --   -0.18501  -0.14441  -0.13010  -0.10494
 Alpha virt. eigenvalues --   -0.06165  -0.05311  -0.04704  -0.03598  -0.02622
 Alpha virt. eigenvalues --   -0.02064  -0.01969  -0.01309  -0.00775  -0.00560
 Alpha virt. eigenvalues --   -0.00127   0.00210   0.00557   0.00601   0.00715

  Beta  occ. eigenvalues --  -38.44575 -38.44048 -38.44013 -38.43924 -38.43699
  Beta  occ. eigenvalues --  -38.43646 -38.42975  -2.20477  -2.20056  -2.19822
  Beta  occ. eigenvalues --   -2.19819  -2.19638  -2.19479  -2.19044  -1.14219
  Beta  occ. eigenvalues --   -1.14155  -1.14108  -1.13840  -1.13742  -1.13723
  Beta  occ. eigenvalues --   -1.13544  -1.13481  -1.13476  -1.13449  -1.13446
  Beta  occ. eigenvalues --   -1.13445  -1.13382  -1.13291  -1.13281  -1.13156
  Beta  occ. eigenvalues --   -1.13153  -1.13109  -1.12758  -1.12701  -1.12629
  Beta  occ. eigenvalues --   -0.17872  -0.13747  -0.12800
  Beta virt. eigenvalues --   -0.06869  -0.05974  -0.05069  -0.04514  -0.02957
  Beta virt. eigenvalues --   -0.02352  -0.01891  -0.01710  -0.01060  -0.00477
  Beta virt. eigenvalues --   -0.00269   0.00216   0.00360   0.00657   0.00727

 Mulliken charges and spin densities:
               1          2
     1  Na  -1.668198  -0.132413
     2  Na   1.266066  -0.022521
     3  Na   1.046465   0.040041
     4  Na  -0.488772   0.193953
     5  Na  -0.497413   0.233025
     6  Na  -0.055210   0.226514
     7  Na   0.397062   0.461400
 Sum of Mulliken charges =  -0.00000   1.00000

 Dipole moment (field-independent basis, Debye):
    X=             -0.7564    Y=              0.4438    Z=              0.0852  Tot=              0.8811
 Quadrupole moment (field-independent basis, Debye-Ang):
   XX=            -68.6236   YY=            -60.6019   ZZ=            -70.9186
   XY=              3.2175   XZ=              0.0931   YZ=             -0.2287

 Normal termination of Gaussian 16 at Mon Nov 13 15:24:25 2023.
