 Gaussian 16, Revision B.01,
 Gaussian 16:  ES64L-G16RevB.01 20-Dec-2017

 -------------------------
 #P B3LYP/6-311+g(d) force
 -------------------------

 ------------------------------
 Gaussian input prepared by ASE
 ------------------------------
 Symbolic Z-matrix:
 Charge =  0 Multiplicity = 2

                         Standard orientation:
 ---------------------------------------------------------------------
 Center     Atomic      Atomic             Coordinates (Angstroms)
 Number     Number       Type             X           Y           Z
 ---------------------------------------------------------------------
      1         11           0        1.337660    0.304042    1.582808
      2         11           0       -0.838756    1.742769    0.517342
      3         11           0        1.903735    1.457751   -0.923596
      4         11           0        1.907328   -1.624516   -0.363719
      5         11           0       -0.881855   -1.335822    1.106508
      6         11           0       -0.401420   -0.551118   -1.548335
      7         11           0       -3.026691    0.006894   -0.371008
 ---------------------------------------------------------------------

 SCF Done:  E(UB3LYP) =  -1136.08485931     A.U. after   24 cycles

 The electronic state is 2-A.
 Alpha  occ. eigenvalues --  -38.44490 -38.44380 -38.43953 -38.43611 -38.43553
 Alpha  occ. eigenvalues --  -38.43356 -38.42765  -2.20625  -2.20498  -2.20199
 Alpha  occ. eigenvalues --   -2.19755  -2.19674  -2.19454  -2.18914  -1.14428
 Alpha  occ. eigenvalues --   -1.14357  -1.14318  -1.14284  -1.14171  -1.14131
 Alpha  occ. eigenvalues --   -1.14014  -1.13860  -1.13802  -1.13431  -1.13361
 Alpha  occ. eigenvalues --   -1.13355  -1.13315  -1.13304  -1.13281  -1.13110
 Alpha  occ. eigenvalues --   -1.13099  -1.12999  -1.12636  -1.12558  -1.12496
 Alpha  occ. eigenvalues --   -0.21447  -0.14332  -0.12594  -0.11971
 Alpha virt. eigenvalues --   -0.05772  -0.04161  -0.04071  -0.03575  -0.02836
 Alpha virt. eigenvalues --   -0.02770  -0.01399  -0.00402  -0.00267   0.00298
 Alpha virt. eigenvalues --    0.00664   0.00881   0.00939   0.01034   0.01084

  Beta  occ. eigenvalues --  -38.44484 -38.44308 -38.43884 -38.43583 -38.43503
  Beta  occ. eigenvalues --  -38.43342 -38.42743  -2.20497  -2.20489  -2.20077
  Beta  occ. eigenvalues --   -2.19672  -2.19625  -2.19434  -2.18882  -1.14340
  Beta  occ. eigenvalues --   -1.14299  -1.14253  -1.14192  -1.14141  -1.14126
  Beta  occ. eigenvalues --   -1.13944  -1.13776  -1.13713  -1.13366  -1.13327
  Beta  occ. eigenvalues --   -1.13283  -1.13270  -1.13238  -1.13224  -1.13097
  Beta  occ. eigenvalues --   -1.13054  -1.12970  -1.12612  -1.12511  -1.12458
  Beta  occ. eigenvalues --   -0.20591  -0.14075  -0.11726
  Beta virt. eigenvalues --   -0.08163  -0.05682  -0.04092  -0.03410  -0.03258
  Beta virt. eigenvalues --   -0.02069  -0.01771  -0.01325  -0.00343  -0.00050
  Beta virt. eigenvalues --    0.00333   0.00719   0.00874   0.01045   0.01065

 Mulliken charges and spin densities:
               1          2
     1  Na   0.786930   0.244981
     2  Na  -0.826779   0.142169
     3  Na  -0.169805   0.072869
     4  Na  -0.097486  -0.053010
     5  Na  -0.663107   0.149013
     6  Na  -0.021047   0.472067
     7  Na   0.991293  -0.028089
 Sum of Mulliken charges =  -0.00000   1.00000

 Dipole moment (field-independent basis, Debye):
    X=             -0.3214    Y=              0.0727    Z=             -0.3043  Tot=              0.4485
 Quadrupole moment (field-independent basis, Debye-Ang):
   XX=            -55.2304   YY=            -74.8413   ZZ=            -66.1904
   XY=             -0.2708   XZ=             -0.4743   YZ=             -1.3374

 Normal termination of Gaussian 16 at Mon Nov 13 19:59:28 2023.
