 Gaussian 16, Revision B.01,
 Gaussian 16:  ES64L-G16RevB.01 20-Dec-2017

 -------------------------
 #P B3LYP/6-311+g(d) force
 -------------------------

 ------------------------------
 Gaussian input prepared by ASE
 ------------------------------
 Symbolic Z-matrix:
 Charge =  0 Multiplicity = 2

                         Standard orientation:
 ---------------------------------------------------------------------
 Center     Atomic      Atomic             Coordinates (Angstroms)
 Number     Number       Type             X           Y           Z
 ---------------------------------------------------------------------
      1         11           0       -1.530193    0.078358    0.186389
      2         11           0        4.376238   -0.215435   -0.460603
      3         11           0       -2.101822    2.915332   -0.611053
      4         11           0        0.320244    2.278647    1.035719
      5         11           0        1.381426   -0.052837   -0.529656
      6         11           0        0.082287   -2.343525    0.909911
      7         11           0       -2.528179   -2.660539   -0.530706
 ---------------------------------------------------------------------

 SCF Done:  E(UB3LYP) =  -1136.10111008     A.U. after   23 cycles

 The electronic state is 2-A.
 Alpha  occ. eigenvalues --  -38.44548 -38.44498 -38.44134 -38.44112 -38.43440
 Alpha  occ. eigenvalues --  -38.43436 -38.43251  -2.20534  -2.20482  -2.20040
 Alpha  occ. eigenvalues --   -2.20020  -2.19642  -2.19317  -2.19273  -1.14280
 Alpha  occ. eigenvalues --   -1.14233  -1.14194  -1.14174  -1.14149  -1.14119
 Alpha  occ. eigenvalues --   -1.13758  -1.13721  -1.13662  -1.13657  -1.13644
 Alpha  occ. eigenvalues --   -1.13639  -1.13401  -1.13294  -1.13222  -1.13087
 Alpha  occ. eigenvalues --   -1.12979  -1.12945  -1.12895  -1.12895  -1.12832
 Alpha  occ. eigenvalues --   -0.19168  -0.14002  -0.13179  -0.09923
 Alpha virt. eigenvalues --   -0.06041  -0.05607  -0.05266  -0.02830  -0.02796
 Alpha virt. eigenvalues --   -0.01974  -0.01896  -0.00902  -0.00835  -0.00711
 Alpha virt. eigenvalues --    0.00085   0.00342   0.00512   0.00639   0.00708

  Beta  occ. eigenvalues --  -38.44525 -38.44477 -38.44110 -38.44086 -38.43408
  Beta  occ. eigenvalues --  -38.43364 -38.43237  -2.20495  -2.20447  -2.19994
  Beta  occ. eigenvalues --   -2.19971  -2.19598  -2.19303  -2.19139  -1.14248
  Beta  occ. eigenvalues --   -1.14202  -1.14178  -1.14135  -1.14126  -1.14076
  Beta  occ. eigenvalues --   -1.13729  -1.13686  -1.13629  -1.13624  -1.13609
  Beta  occ. eigenvalues --   -1.13604  -1.13358  -1.13204  -1.13193  -1.13030
  Beta  occ. eigenvalues --   -1.12980  -1.12894  -1.12804  -1.12802  -1.12764
  Beta  occ. eigenvalues --   -0.18547  -0.13922  -0.12467
  Beta virt. eigenvalues --   -0.06510  -0.05877  -0.05209  -0.04944  -0.02677
  Beta virt. eigenvalues --   -0.02336  -0.01833  -0.01644  -0.00630  -0.00467
  Beta virt. eigenvalues --   -0.00305   0.00204   0.00481   0.00636   0.00760

 Mulliken charges and spin densities:
               1          2
     1  Na  -1.227556   0.645367
     2  Na   0.102991   0.305379
     3  Na   0.866860   0.044824
     4  Na   0.316834   0.073486
     5  Na  -1.247392  -0.259198
     6  Na   0.341882   0.105395
     7  Na   0.846382   0.084747
 Sum of Mulliken charges =  -0.00000   1.00000

 Dipole moment (field-independent basis, Debye):
    X=             -0.7994    Y=              0.0420    Z=              1.1377  Tot=              1.3911
 Quadrupole moment (field-independent basis, Debye-Ang):
   XX=            -72.1891   YY=            -56.9882   ZZ=            -69.9478
   XY=              1.1166   XZ=              4.2067   YZ=             -0.0628

 Normal termination of Gaussian 16 at Mon Nov 13 15:30:04 2023.
