 Gaussian 16, Revision B.01,
 Gaussian 16:  ES64L-G16RevB.01 20-Dec-2017

 -------------------------
 #P B3LYP/6-311+g(d) force
 -------------------------

 ------------------------------
 Gaussian input prepared by ASE
 ------------------------------
 Symbolic Z-matrix:
 Charge =  0 Multiplicity = 2

                         Standard orientation:
 ---------------------------------------------------------------------
 Center     Atomic      Atomic             Coordinates (Angstroms)
 Number     Number       Type             X           Y           Z
 ---------------------------------------------------------------------
      1         11           0        0.097738   -0.293152   -1.259773
      2         11           0       -1.325043    1.373800    0.789428
      3         11           0       -2.885086   -0.462003   -0.997365
      4         11           0       -1.131795   -1.592872    1.155545
      5         11           0        1.172392    2.408205   -0.499913
      6         11           0        1.321527    0.116373    1.433307
      7         11           0        2.750266   -1.550351   -0.621229
 ---------------------------------------------------------------------

 SCF Done:  E(UB3LYP) =  -1136.10169599     A.U. after   21 cycles

 The electronic state is 2-A.
 Alpha  occ. eigenvalues --  -38.44180 -38.43793 -38.43614 -38.43370 -38.43236
 Alpha  occ. eigenvalues --  -38.42990 -38.42975  -2.20168  -2.19695  -2.19691
 Alpha  occ. eigenvalues --   -2.19566  -2.19519  -2.19168  -2.18965  -1.13931
 Alpha  occ. eigenvalues --   -1.13824  -1.13801  -1.13600  -1.13489  -1.13407
 Alpha  occ. eigenvalues --   -1.13368  -1.13355  -1.13305  -1.13281  -1.13188
 Alpha  occ. eigenvalues --   -1.13156  -1.13128  -1.13124  -1.13071  -1.12850
 Alpha  occ. eigenvalues --   -1.12816  -1.12783  -1.12620  -1.12595  -1.12532
 Alpha  occ. eigenvalues --   -0.20642  -0.13922  -0.12067  -0.11903
 Alpha virt. eigenvalues --   -0.05525  -0.04471  -0.04028  -0.03318  -0.02642
 Alpha virt. eigenvalues --   -0.02562  -0.01449  -0.00672  -0.00421   0.00321
 Alpha virt. eigenvalues --    0.00611   0.00700   0.00900   0.00990   0.01021

  Beta  occ. eigenvalues --  -38.44153 -38.43783 -38.43566 -38.43313 -38.43179
  Beta  occ. eigenvalues --  -38.42966 -38.42960  -2.20121  -2.19674  -2.19614
  Beta  occ. eigenvalues --   -2.19468  -2.19419  -2.19121  -2.18951  -1.13900
  Beta  occ. eigenvalues --   -1.13778  -1.13764  -1.13534  -1.13456  -1.13375
  Beta  occ. eigenvalues --   -1.13313  -1.13275  -1.13266  -1.13244  -1.13112
  Beta  occ. eigenvalues --   -1.13079  -1.13072  -1.13046  -1.12991  -1.12819
  Beta  occ. eigenvalues --   -1.12780  -1.12700  -1.12603  -1.12569  -1.12517
  Beta  occ. eigenvalues --   -0.19785  -0.13686  -0.11840
  Beta virt. eigenvalues --   -0.07596  -0.05425  -0.04390  -0.03573  -0.02997
  Beta virt. eigenvalues --   -0.02007  -0.01542  -0.01298  -0.00645  -0.00104
  Beta virt. eigenvalues --    0.00351   0.00628   0.00784   0.00912   0.01031

 Mulliken charges and spin densities:
               1          2
     1  Na  -0.938292   0.426723
     2  Na  -0.047061   0.424900
     3  Na   1.161834  -0.098697
     4  Na  -0.209106   0.258696
     5  Na   0.050794  -0.018024
     6  Na   0.131631  -0.048075
     7  Na  -0.149801   0.054477
 Sum of Mulliken charges =  -0.00000   1.00000

 Dipole moment (field-independent basis, Debye):
    X=             -0.1025    Y=             -0.1812    Z=             -0.2422  Tot=              0.3194
 Quadrupole moment (field-independent basis, Debye-Ang):
   XX=            -55.5121   YY=            -69.9382   ZZ=            -67.7365
   XY=              0.5423   XZ=              0.1792   YZ=             -0.7582

 Normal termination of Gaussian 16 at Mon Nov 13 19:18:21 2023.
