 Gaussian 16, Revision B.01,
 Gaussian 16:  ES64L-G16RevB.01 20-Dec-2017

 -------------------------
 #P B3LYP/6-311+g(d) force
 -------------------------

 ------------------------------
 Gaussian input prepared by ASE
 ------------------------------
 Symbolic Z-matrix:
 Charge =  0 Multiplicity = 2

                         Standard orientation:
 ---------------------------------------------------------------------
 Center     Atomic      Atomic             Coordinates (Angstroms)
 Number     Number       Type             X           Y           Z
 ---------------------------------------------------------------------
      1         11           0       -0.210907   -0.739965    1.635408
      2         11           0       -1.024115   -1.423378   -1.168874
      3         11           0       -2.993270   -0.146009    0.682964
      4         11           0       -1.516367    1.534415   -1.315465
      5         11           0        0.692323    1.964476    0.676239
      6         11           0        3.259700    0.714544   -0.242674
      7         11           0        1.792634   -1.904084   -0.267598
 ---------------------------------------------------------------------

 SCF Done:  E(UB3LYP) =  -1136.10468441     A.U. after   20 cycles

 The electronic state is 2-A.
 Alpha  occ. eigenvalues --  -38.45049 -38.45043 -38.43751 -38.43709 -38.43417
 Alpha  occ. eigenvalues --  -38.43362 -38.43137  -2.21024  -2.20924  -2.19820
 Alpha  occ. eigenvalues --   -2.19750  -2.19501  -2.19339  -2.19117  -1.14750
 Alpha  occ. eigenvalues --   -1.14705  -1.14640  -1.14616  -1.14603  -1.14552
 Alpha  occ. eigenvalues --   -1.13569  -1.13492  -1.13476  -1.13469  -1.13422
 Alpha  occ. eigenvalues --   -1.13373  -1.13221  -1.13135  -1.13095  -1.12982
 Alpha  occ. eigenvalues --   -1.12967  -1.12938  -1.12790  -1.12765  -1.12736
 Alpha  occ. eigenvalues --   -0.20044  -0.14362  -0.12006  -0.11453
 Alpha virt. eigenvalues --   -0.06623  -0.04831  -0.03951  -0.03668  -0.02744
 Alpha virt. eigenvalues --   -0.02463  -0.02078  -0.00510  -0.00185   0.00183
 Alpha virt. eigenvalues --    0.00282   0.00345   0.00627   0.00847   0.00994

  Beta  occ. eigenvalues --  -38.45052 -38.45021 -38.43705 -38.43628 -38.43375
  Beta  occ. eigenvalues --  -38.43353 -38.43118  -2.20990  -2.20930  -2.19675
  Beta  occ. eigenvalues --   -2.19668  -2.19429  -2.19326  -2.19086  -1.14735
  Beta  occ. eigenvalues --   -1.14639  -1.14619  -1.14612  -1.14607  -1.14550
  Beta  occ. eigenvalues --   -1.13486  -1.13424  -1.13376  -1.13368  -1.13359
  Beta  occ. eigenvalues --   -1.13310  -1.13175  -1.13086  -1.13017  -1.12963
  Beta  occ. eigenvalues --   -1.12946  -1.12912  -1.12766  -1.12727  -1.12707
  Beta  occ. eigenvalues --   -0.19293  -0.14094  -0.11826
  Beta virt. eigenvalues --   -0.07335  -0.06471  -0.04795  -0.03591  -0.03162
  Beta virt. eigenvalues --   -0.02131  -0.01985  -0.01363  -0.00496   0.00067
  Beta virt. eigenvalues --    0.00214   0.00299   0.00365   0.00817   0.00859

 Mulliken charges and spin densities:
               1          2
     1  Na  -0.598090   0.291474
     2  Na  -0.559638   0.286818
     3  Na   0.584017  -0.016594
     4  Na   0.194453   0.246238
     5  Na   0.138825   0.138265
     6  Na  -0.497662  -0.135032
     7  Na   0.738095   0.188831
 Sum of Mulliken charges =  -0.00000   1.00000

 Dipole moment (field-independent basis, Debye):
    X=              0.0499    Y=              0.1173    Z=             -0.0974  Tot=              0.1604
 Quadrupole moment (field-independent basis, Debye-Ang):
   XX=            -50.2168   YY=            -74.6793   ZZ=            -70.7039
   XY=             -0.0691   XZ=             -2.2666   YZ=             -0.3416

 Normal termination of Gaussian 16 at Mon Nov 13 16:48:07 2023.
