 Gaussian 16, Revision B.01,
 Gaussian 16:  ES64L-G16RevB.01 20-Dec-2017

 -------------------------
 #P B3LYP/6-311+g(d) force
 -------------------------

 ------------------------------
 Gaussian input prepared by ASE
 ------------------------------
 Symbolic Z-matrix:
 Charge =  0 Multiplicity = 2

                         Standard orientation:
 ---------------------------------------------------------------------
 Center     Atomic      Atomic             Coordinates (Angstroms)
 Number     Number       Type             X           Y           Z
 ---------------------------------------------------------------------
      1         11           0        0.630325   -1.609384    0.723398
      2         11           0       -2.019611   -0.504698    1.606402
      3         11           0       -1.769918   -1.828041   -1.064299
      4         11           0       -2.177181    1.140458   -0.899529
      5         11           0        0.178612    2.913347   -0.329534
      6         11           0        2.108291    0.995701    0.939079
      7         11           0        3.049483   -1.107383   -0.975517
 ---------------------------------------------------------------------

 SCF Done:  E(UB3LYP) =  -1136.10776247     A.U. after   20 cycles

 The electronic state is 2-A.
 Alpha  occ. eigenvalues --  -38.44495 -38.44238 -38.44182 -38.44041 -38.43865
 Alpha  occ. eigenvalues --  -38.43411 -38.43368  -2.20391  -2.20245  -2.20165
 Alpha  occ. eigenvalues --   -2.20012  -2.19846  -2.19445  -2.19288  -1.14130
 Alpha  occ. eigenvalues --   -1.14062  -1.14050  -1.14005  -1.13950  -1.13876
 Alpha  occ. eigenvalues --   -1.13854  -1.13834  -1.13722  -1.13711  -1.13688
 Alpha  occ. eigenvalues --   -1.13629  -1.13516  -1.13487  -1.13466  -1.13111
 Alpha  occ. eigenvalues --   -1.13089  -1.13072  -1.12958  -1.12940  -1.12904
 Alpha  occ. eigenvalues --   -0.19272  -0.14287  -0.12617  -0.10829
 Alpha virt. eigenvalues --   -0.05951  -0.05294  -0.04633  -0.03941  -0.02774
 Alpha virt. eigenvalues --   -0.02168  -0.01414  -0.00613  -0.00275  -0.00136
 Alpha virt. eigenvalues --    0.00140   0.00424   0.00463   0.00820   0.00895

  Beta  occ. eigenvalues --  -38.44471 -38.44181 -38.44152 -38.44027 -38.43834
  Beta  occ. eigenvalues --  -38.43411 -38.43335  -2.20344  -2.20147  -2.20110
  Beta  occ. eigenvalues --   -2.19990  -2.19792  -2.19395  -2.19290  -1.14104
  Beta  occ. eigenvalues --   -1.14022  -1.14009  -1.13970  -1.13869  -1.13808
  Beta  occ. eigenvalues --   -1.13797  -1.13787  -1.13703  -1.13678  -1.13654
  Beta  occ. eigenvalues --   -1.13592  -1.13482  -1.13438  -1.13420  -1.13067
  Beta  occ. eigenvalues --   -1.13058  -1.12991  -1.12952  -1.12940  -1.12899
  Beta  occ. eigenvalues --   -0.18580  -0.14056  -0.12411
  Beta virt. eigenvalues --   -0.06976  -0.05776  -0.05111  -0.04274  -0.03521
  Beta virt. eigenvalues --   -0.02230  -0.01388  -0.01195  -0.00538  -0.00082
  Beta virt. eigenvalues --    0.00026   0.00234   0.00500   0.00586   0.00879

 Mulliken charges and spin densities:
               1          2
     1  Na   0.183658   0.710937
     2  Na   0.325850   0.139688
     3  Na  -0.192815   0.124985
     4  Na  -0.316329   0.177774
     5  Na  -0.048309  -0.013755
     6  Na  -0.248542  -0.089572
     7  Na   0.296487  -0.050058
 Sum of Mulliken charges =  -0.00000   1.00000

 Dipole moment (field-independent basis, Debye):
    X=              0.2581    Y=             -0.2872    Z=             -0.2709  Tot=              0.4717
 Quadrupole moment (field-independent basis, Debye-Ang):
   XX=            -58.6156   YY=            -69.3298   ZZ=            -69.7302
   XY=              0.9513   XZ=             -2.7410   YZ=              2.4054

 Normal termination of Gaussian 16 at Mon Nov 13 15:41:43 2023.
