 Gaussian 16, Revision B.01,
 Gaussian 16:  ES64L-G16RevB.01 20-Dec-2017

 -------------------------
 #P B3LYP/6-311+g(d) force
 -------------------------

 ------------------------------
 Gaussian input prepared by ASE
 ------------------------------
 Symbolic Z-matrix:
 Charge =  0 Multiplicity = 2

                         Standard orientation:
 ---------------------------------------------------------------------
 Center     Atomic      Atomic             Coordinates (Angstroms)
 Number     Number       Type             X           Y           Z
 ---------------------------------------------------------------------
      1         11           0       -0.012375    0.000201    1.671050
      2         11           0       -0.025384   -1.936405    0.001667
      3         11           0       -2.197523   -0.644987   -0.001892
      4         11           0        1.256388    1.592028   -0.001197
      5         11           0       -0.014646    0.001083   -1.670653
      6         11           0       -1.177227    1.676109    0.002577
      7         11           0        2.170768   -0.688029   -0.001551
 ---------------------------------------------------------------------

 SCF Done:  E(UB3LYP) =  -1135.97279606     A.U. after   22 cycles

 The electronic state is 2-A.
 Alpha  occ. eigenvalues --  -38.45611 -38.45607 -38.45449 -38.45224 -38.45129
 Alpha  occ. eigenvalues --  -38.45095 -38.44917  -2.22205  -2.22145  -2.21922
 Alpha  occ. eigenvalues --   -2.21628  -2.21600  -2.21384  -2.21207  -1.16651
 Alpha  occ. eigenvalues --   -1.16385  -1.16205  -1.16146  -1.16072  -1.16042
 Alpha  occ. eigenvalues --   -1.15883  -1.15820  -1.15423  -1.15322  -1.15246
 Alpha  occ. eigenvalues --   -1.15199  -1.15066  -1.14941  -1.14926  -1.14895
 Alpha  occ. eigenvalues --   -1.14772  -1.14735  -1.14700  -1.14603  -1.14418
 Alpha  occ. eigenvalues --   -0.23543  -0.14339  -0.13510  -0.13304
 Alpha virt. eigenvalues --   -0.05426  -0.04044  -0.04025  -0.04016  -0.03585
 Alpha virt. eigenvalues --   -0.02819  -0.00753  -0.00309  -0.00118   0.00265
 Alpha virt. eigenvalues --    0.01047   0.01085   0.01163   0.01342   0.01376

  Beta  occ. eigenvalues --  -38.45503 -38.45500 -38.45426 -38.45201 -38.45105
  Beta  occ. eigenvalues --  -38.45077 -38.44900  -2.22053  -2.21953  -2.21860
  Beta  occ. eigenvalues --   -2.21599  -2.21562  -2.21360  -2.21185  -1.16599
  Beta  occ. eigenvalues --   -1.16346  -1.16140  -1.16012  -1.16005  -1.15923
  Beta  occ. eigenvalues --   -1.15808  -1.15740  -1.15340  -1.15260  -1.15151
  Beta  occ. eigenvalues --   -1.15129  -1.14954  -1.14929  -1.14814  -1.14796
  Beta  occ. eigenvalues --   -1.14759  -1.14690  -1.14647  -1.14594  -1.14410
  Beta  occ. eigenvalues --   -0.22672  -0.13868  -0.13055
  Beta virt. eigenvalues --   -0.08890  -0.05470  -0.03990  -0.03974  -0.02936
  Beta virt. eigenvalues --   -0.02553  -0.01789  -0.00687  -0.00265   0.00025
  Beta virt. eigenvalues --    0.00285   0.01069   0.01092   0.01195   0.01404

 Mulliken charges and spin densities:
               1          2
     1  Na  -0.300901   0.432733
     2  Na   0.395846   0.083893
     3  Na  -0.090096  -0.025958
     4  Na   0.227798   0.060727
     5  Na  -0.300191   0.433020
     6  Na   0.195797   0.044486
     7  Na  -0.128252  -0.028900
 Sum of Mulliken charges =  -0.00000   1.00000

 Dipole moment (field-independent basis, Debye):
    X=             -0.0578    Y=             -0.1332    Z=             -0.0002  Tot=              0.1452
 Quadrupole moment (field-independent basis, Debye-Ang):
   XX=            -63.9127   YY=            -70.9923   ZZ=            -67.4154
   XY=             -0.1057   XZ=             -0.0031   YZ=              0.0025

 Normal termination of Gaussian 16 at Mon Nov 13 20:48:04 2023.
