 Gaussian 16, Revision B.01,
 Gaussian 16:  ES64L-G16RevB.01 20-Dec-2017

 -------------------------
 #P B3LYP/6-311+g(d) force
 -------------------------

 ------------------------------
 Gaussian input prepared by ASE
 ------------------------------
 Symbolic Z-matrix:
 Charge =  0 Multiplicity = 2

                         Standard orientation:
 ---------------------------------------------------------------------
 Center     Atomic      Atomic             Coordinates (Angstroms)
 Number     Number       Type             X           Y           Z
 ---------------------------------------------------------------------
      1         11           0        0.120693    1.568355   -0.309487
      2         11           0        0.573519   -2.297836   -1.655226
      3         11           0       -2.828187    2.021491   -0.068598
      4         11           0       -1.794379   -0.712905   -0.701810
      5         11           0       -0.862017   -1.590840    2.018241
      6         11           0        1.707474   -0.782371    0.681227
      7         11           0        3.082897    1.794106    0.035653
 ---------------------------------------------------------------------

 SCF Done:  E(UB3LYP) =  -1136.11048089     A.U. after   20 cycles

 The electronic state is 2-A.
 Alpha  occ. eigenvalues --  -38.44277 -38.44071 -38.43779 -38.43745 -38.43434
 Alpha  occ. eigenvalues --  -38.43366 -38.43162  -2.20210  -2.19999  -2.19675
 Alpha  occ. eigenvalues --   -2.19640  -2.19535  -2.19460  -2.19236  -1.13914
 Alpha  occ. eigenvalues --   -1.13893  -1.13780  -1.13713  -1.13695  -1.13579
 Alpha  occ. eigenvalues --   -1.13473  -1.13408  -1.13362  -1.13325  -1.13294
 Alpha  occ. eigenvalues --   -1.13271  -1.13259  -1.13196  -1.13182  -1.13119
 Alpha  occ. eigenvalues --   -1.13076  -1.13013  -1.12887  -1.12866  -1.12810
 Alpha  occ. eigenvalues --   -0.19527  -0.13392  -0.12787  -0.11468
 Alpha virt. eigenvalues --   -0.05457  -0.05343  -0.04097  -0.03128  -0.03047
 Alpha virt. eigenvalues --   -0.02630  -0.01441  -0.01073  -0.00379   0.00086
 Alpha virt. eigenvalues --    0.00262   0.00440   0.00692   0.00760   0.01003

  Beta  occ. eigenvalues --  -38.44186 -38.44002 -38.43782 -38.43750 -38.43408
  Beta  occ. eigenvalues --  -38.43342 -38.43151  -2.20041  -2.19871  -2.19682
  Beta  occ. eigenvalues --   -2.19648  -2.19496  -2.19424  -2.19219  -1.13804
  Beta  occ. eigenvalues --   -1.13774  -1.13666  -1.13626  -1.13609  -1.13488
  Beta  occ. eigenvalues --   -1.13471  -1.13406  -1.13365  -1.13330  -1.13290
  Beta  occ. eigenvalues --   -1.13260  -1.13251  -1.13170  -1.13115  -1.13054
  Beta  occ. eigenvalues --   -1.13038  -1.12999  -1.12879  -1.12825  -1.12802
  Beta  occ. eigenvalues --   -0.18791  -0.13252  -0.12554
  Beta virt. eigenvalues --   -0.07295  -0.05301  -0.05187  -0.03922  -0.02490
  Beta virt. eigenvalues --   -0.02447  -0.01825  -0.01404  -0.00821  -0.00093
  Beta virt. eigenvalues --    0.00136   0.00335   0.00480   0.00769   0.00879

 Mulliken charges and spin densities:
               1          2
     1  Na  -1.858735   0.251864
     2  Na   0.269524   0.303003
     3  Na   0.954876  -0.202824
     4  Na  -0.274534   0.123558
     5  Na   0.183191   0.315300
     6  Na  -0.278164   0.285347
     7  Na   1.003842  -0.076248
 Sum of Mulliken charges =  -0.00000   1.00000

 Dipole moment (field-independent basis, Debye):
    X=             -0.0583    Y=             -0.0982    Z=              0.1294  Tot=              0.1726
 Quadrupole moment (field-independent basis, Debye-Ang):
   XX=            -58.2678   YY=            -65.2738   ZZ=            -69.9392
   XY=             -0.5309   XZ=             -2.2483   YZ=              0.9417

 Normal termination of Gaussian 16 at Mon Nov 13 16:22:29 2023.
