 Gaussian 16, Revision B.01,
 Gaussian 16:  ES64L-G16RevB.01 20-Dec-2017

 -------------------------
 #P B3LYP/6-311+g(d) force
 -------------------------

 ------------------------------
 Gaussian input prepared by ASE
 ------------------------------
 Symbolic Z-matrix:
 Charge =  0 Multiplicity = 2

                         Standard orientation:
 ---------------------------------------------------------------------
 Center     Atomic      Atomic             Coordinates (Angstroms)
 Number     Number       Type             X           Y           Z
 ---------------------------------------------------------------------
      1         11           0       -0.472034    0.131468    1.992202
      2         11           0       -0.527185   -2.388647   -1.365602
      3         11           0       -2.634964   -1.224874    0.424692
      4         11           0       -2.220362    1.731812    0.158336
      5         11           0        0.250103    2.227910   -1.472692
      6         11           0        1.380030   -0.309809   -0.333327
      7         11           0        4.224412   -0.167860    0.596391
 ---------------------------------------------------------------------

 SCF Done:  E(UB3LYP) =  -1136.10110766     A.U. after   22 cycles

 The electronic state is 2-A.
 Alpha  occ. eigenvalues --  -38.45275 -38.45252 -38.43998 -38.43797 -38.43659
 Alpha  occ. eigenvalues --  -38.43533 -38.43121  -2.21236  -2.21068  -2.19983
 Alpha  occ. eigenvalues --   -2.19706  -2.19642  -2.19441  -2.19189  -1.14937
 Alpha  occ. eigenvalues --   -1.14902  -1.14840  -1.14754  -1.14703  -1.14700
 Alpha  occ. eigenvalues --   -1.13708  -1.13657  -1.13647  -1.13459  -1.13422
 Alpha  occ. eigenvalues --   -1.13321  -1.13301  -1.13269  -1.13191  -1.13179
 Alpha  occ. eigenvalues --   -1.13069  -1.13040  -1.12891  -1.12831  -1.12780
 Alpha  occ. eigenvalues --   -0.19290  -0.13595  -0.12153  -0.11504
 Alpha virt. eigenvalues --   -0.06978  -0.04281  -0.04040  -0.03770  -0.02965
 Alpha virt. eigenvalues --   -0.02562  -0.02230  -0.00709  -0.00388  -0.00016
 Alpha virt. eigenvalues --    0.00092   0.00201   0.00428   0.00820   0.00895

  Beta  occ. eigenvalues --  -38.45252 -38.45183 -38.43989 -38.43744 -38.43652
  Beta  occ. eigenvalues --  -38.43487 -38.43100  -2.21110  -2.21025  -2.19972
  Beta  occ. eigenvalues --   -2.19639  -2.19606  -2.19358  -2.19160  -1.14857
  Beta  occ. eigenvalues --   -1.14799  -1.14759  -1.14729  -1.14672  -1.14669
  Beta  occ. eigenvalues --   -1.13703  -1.13647  -1.13606  -1.13414  -1.13357
  Beta  occ. eigenvalues --   -1.13289  -1.13280  -1.13228  -1.13147  -1.13122
  Beta  occ. eigenvalues --   -1.13017  -1.12978  -1.12868  -1.12778  -1.12745
  Beta  occ. eigenvalues --   -0.18582  -0.13162  -0.11828
  Beta virt. eigenvalues --   -0.07841  -0.06698  -0.04090  -0.03729  -0.03188
  Beta virt. eigenvalues --   -0.02538  -0.02239  -0.01590  -0.00674  -0.00147
  Beta virt. eigenvalues --    0.00148   0.00197   0.00265   0.00556   0.00875

 Mulliken charges and spin densities:
               1          2
     1  Na  -0.639200   0.082863
     2  Na   1.456791  -0.132640
     3  Na   0.325875   0.110261
     4  Na   0.469653   0.181937
     5  Na   0.334379   0.105258
     6  Na  -1.172869   0.595493
     7  Na  -0.774629   0.056827
 Sum of Mulliken charges =  -0.00000   1.00000

 Dipole moment (field-independent basis, Debye):
    X=              0.5631    Y=              0.1549    Z=              0.2115  Tot=              0.6211
 Quadrupole moment (field-independent basis, Debye-Ang):
   XX=            -52.6728   YY=            -73.3957   ZZ=            -67.9482
   XY=              0.3989   XZ=              1.4392   YZ=             -0.2788

 Normal termination of Gaussian 16 at Mon Nov 13 16:01:14 2023.
