 Gaussian 16, Revision B.01,
 Gaussian 16:  ES64L-G16RevB.01 20-Dec-2017

 -------------------------
 #P B3LYP/6-311+g(d) force
 -------------------------

 ------------------------------
 Gaussian input prepared by ASE
 ------------------------------
 Symbolic Z-matrix:
 Charge =  0 Multiplicity = 2

                         Standard orientation:
 ---------------------------------------------------------------------
 Center     Atomic      Atomic             Coordinates (Angstroms)
 Number     Number       Type             X           Y           Z
 ---------------------------------------------------------------------
      1         11           0       -0.000295   -0.006659   -1.228634
      2         11           0       -0.014913   -1.437083    1.404139
      3         11           0       -2.435971   -1.522413   -0.363307
      4         11           0       -2.462769    1.477610   -0.383606
      5         11           0        0.013097    1.569078    1.316190
      6         11           0        2.479027    1.459833   -0.396321
      7         11           0        2.421823   -1.540366   -0.348461
 ---------------------------------------------------------------------

 SCF Done:  E(UB3LYP) =  -1136.10280083     A.U. after   18 cycles

 The electronic state is 2-A.
 Alpha  occ. eigenvalues --  -38.44072 -38.44059 -38.44050 -38.44035 -38.43318
 Alpha  occ. eigenvalues --  -38.43157 -38.43086  -2.20052  -2.20042  -2.20024
 Alpha  occ. eigenvalues --   -2.20012  -2.19611  -2.19252  -2.19175  -1.13903
 Alpha  occ. eigenvalues --   -1.13852  -1.13762  -1.13755  -1.13746  -1.13719
 Alpha  occ. eigenvalues --   -1.13709  -1.13694  -1.13671  -1.13662  -1.13548
 Alpha  occ. eigenvalues --   -1.13545  -1.13374  -1.13209  -1.13205  -1.12998
 Alpha  occ. eigenvalues --   -1.12868  -1.12863  -1.12808  -1.12784  -1.12722
 Alpha  occ. eigenvalues --   -0.20422  -0.14387  -0.12062  -0.11378
 Alpha virt. eigenvalues --   -0.05762  -0.05262  -0.03724  -0.03517  -0.02665
 Alpha virt. eigenvalues --   -0.02233  -0.01781  -0.00934  -0.00083   0.00319
 Alpha virt. eigenvalues --    0.00328   0.00505   0.00739   0.00818   0.01104

  Beta  occ. eigenvalues --  -38.44059 -38.44046 -38.44037 -38.44023 -38.43270
  Beta  occ. eigenvalues --  -38.43092 -38.43027  -2.20032  -2.20022  -2.20005
  Beta  occ. eigenvalues --   -2.19993  -2.19529  -2.19135  -2.19070  -1.13882
  Beta  occ. eigenvalues --   -1.13838  -1.13748  -1.13738  -1.13729  -1.13707
  Beta  occ. eigenvalues --   -1.13673  -1.13657  -1.13627  -1.13619  -1.13537
  Beta  occ. eigenvalues --   -1.13535  -1.13299  -1.13156  -1.13149  -1.12902
  Beta  occ. eigenvalues --   -1.12790  -1.12786  -1.12732  -1.12721  -1.12619
  Beta  occ. eigenvalues --   -0.19670  -0.13964  -0.11934
  Beta virt. eigenvalues --   -0.07265  -0.05631  -0.05246  -0.03414  -0.02889
  Beta virt. eigenvalues --   -0.02058  -0.01635  -0.01133  -0.00950   0.00140
  Beta virt. eigenvalues --    0.00319   0.00382   0.00491   0.00737   0.00876

 Mulliken charges and spin densities:
               1          2
     1  Na  -0.848117  -0.028080
     2  Na   0.012693   0.229655
     3  Na   0.251949   0.143029
     4  Na   0.130740   0.138067
     5  Na   0.074932   0.237774
     6  Na   0.161385   0.143829
     7  Na   0.216418   0.135726
 Sum of Mulliken charges =  -0.00000   1.00000

 Dipole moment (field-independent basis, Debye):
    X=              0.0023    Y=             -0.0218    Z=              0.0309  Tot=              0.0379
 Quadrupole moment (field-independent basis, Debye-Ang):
   XX=            -52.7695   YY=            -69.2669   ZZ=            -71.8667
   XY=              0.0024   XZ=              0.0019   YZ=              0.0646

 Normal termination of Gaussian 16 at Mon Nov 13 16:56:12 2023.
