 Gaussian 16, Revision B.01,
 Gaussian 16:  ES64L-G16RevB.01 20-Dec-2017

 -------------------------
 #P B3LYP/6-311+g(d) force
 -------------------------

 ------------------------------
 Gaussian input prepared by ASE
 ------------------------------
 Symbolic Z-matrix:
 Charge =  0 Multiplicity = 2

                         Standard orientation:
 ---------------------------------------------------------------------
 Center     Atomic      Atomic             Coordinates (Angstroms)
 Number     Number       Type             X           Y           Z
 ---------------------------------------------------------------------
      1         11           0       -1.491960   -1.946857    0.869944
      2         11           0       -3.107656   -0.542636   -1.207035
      3         11           0       -2.614925    0.774557    1.447599
      4         11           0       -0.698037    2.431484   -0.164099
      5         11           0       -0.110586   -0.314350   -1.237338
      6         11           0        2.533421   -0.441398    0.174634
      7         11           0        5.489744    0.039200    0.116295
 ---------------------------------------------------------------------

 SCF Done:  E(UB3LYP) =  -1136.09035088     A.U. after   29 cycles

 The electronic state is 2-A.
 Alpha  occ. eigenvalues --  -38.46071 -38.44865 -38.44427 -38.44011 -38.43949
 Alpha  occ. eigenvalues --  -38.43586 -38.42277  -2.22042  -2.20692  -2.20455
 Alpha  occ. eigenvalues --   -2.20067  -2.20004  -2.19463  -2.18205  -1.15771
 Alpha  occ. eigenvalues --   -1.15751  -1.15626  -1.14369  -1.14313  -1.14311
 Alpha  occ. eigenvalues --   -1.14166  -1.14117  -1.14059  -1.13828  -1.13808
 Alpha  occ. eigenvalues --   -1.13669  -1.13649  -1.13614  -1.13553  -1.13168
 Alpha  occ. eigenvalues --   -1.13119  -1.13080  -1.11900  -1.11879  -1.11815
 Alpha  occ. eigenvalues --   -0.19522  -0.14278  -0.11511  -0.11381
 Alpha virt. eigenvalues --   -0.08138  -0.04474  -0.03601  -0.03397  -0.03307
 Alpha virt. eigenvalues --   -0.02290  -0.02063  -0.01259  -0.01165  -0.00940
 Alpha virt. eigenvalues --   -0.00094   0.00113   0.00212   0.00579   0.00997

  Beta  occ. eigenvalues --  -38.46073 -38.44785 -38.44360 -38.43991 -38.43872
  Beta  occ. eigenvalues --  -38.43587 -38.42273  -2.22051  -2.20543  -2.20331
  Beta  occ. eigenvalues --   -2.19974  -2.19925  -2.19473  -2.18202  -1.15780
  Beta  occ. eigenvalues --   -1.15709  -1.15639  -1.14272  -1.14211  -1.14210
  Beta  occ. eigenvalues --   -1.14084  -1.14037  -1.13966  -1.13765  -1.13729
  Beta  occ. eigenvalues --   -1.13623  -1.13589  -1.13564  -1.13469  -1.13134
  Beta  occ. eigenvalues --   -1.13108  -1.13094  -1.11902  -1.11859  -1.11810
  Beta  occ. eigenvalues --   -0.18931  -0.13448  -0.11217
  Beta virt. eigenvalues --   -0.07938  -0.07769  -0.03943  -0.03528  -0.03034
  Beta virt. eigenvalues --   -0.02970  -0.02028  -0.01656  -0.00898  -0.00816
  Beta virt. eigenvalues --   -0.00537  -0.00018   0.00240   0.00294   0.00632

 Mulliken charges and spin densities:
               1          2
     1  Na   0.185637   0.031813
     2  Na   0.855021  -0.007312
     3  Na  -0.055083   0.418378
     4  Na  -0.189921  -0.107118
     5  Na  -0.352003   0.555839
     6  Na  -0.433924   0.098480
     7  Na  -0.009727   0.009921
 Sum of Mulliken charges =  -0.00000   1.00000

 Dipole moment (field-independent basis, Debye):
    X=             -0.5107    Y=             -0.0080    Z=             -0.3373  Tot=              0.6120
 Quadrupole moment (field-independent basis, Debye-Ang):
   XX=            -55.9931   YY=            -79.1002   ZZ=            -62.6931
   XY=              1.5381   XZ=              4.6561   YZ=             -1.6694

 Normal termination of Gaussian 16 at Mon Nov 13 15:48:01 2023.
