 Gaussian 16, Revision B.01,
 Gaussian 16:  ES64L-G16RevB.01 20-Dec-2017

 -------------------------
 #P B3LYP/6-311+g(d) force
 -------------------------

 ------------------------------
 Gaussian input prepared by ASE
 ------------------------------
 Symbolic Z-matrix:
 Charge =  0 Multiplicity = 2

                         Standard orientation:
 ---------------------------------------------------------------------
 Center     Atomic      Atomic             Coordinates (Angstroms)
 Number     Number       Type             X           Y           Z
 ---------------------------------------------------------------------
      1         11           0       -2.747325    2.120990    0.400587
      2         11           0        4.745374    0.928934   -1.057230
      3         11           0        4.442311   -0.579504    1.513058
      4         11           0        2.212523   -0.574642   -0.490760
      5         11           0       -0.717216   -0.020332   -0.147426
      6         11           0       -2.951577   -2.015888   -0.350095
      7         11           0       -4.984090    0.140443    0.131866
 ---------------------------------------------------------------------

 SCF Done:  E(UB3LYP) =  -1136.09248056     A.U. after   25 cycles

 The electronic state is 2-A.
 Alpha  occ. eigenvalues --  -38.46290 -38.45955 -38.43829 -38.43541 -38.43490
 Alpha  occ. eigenvalues --  -38.43120 -38.41941  -2.22167  -2.21835  -2.19750
 Alpha  occ. eigenvalues --   -2.19478  -2.19470  -2.19022  -2.17934  -1.15887
 Alpha  occ. eigenvalues --   -1.15830  -1.15799  -1.15525  -1.15468  -1.15436
 Alpha  occ. eigenvalues --   -1.13424  -1.13399  -1.13374  -1.13186  -1.13157
 Alpha  occ. eigenvalues --   -1.13137  -1.13128  -1.13122  -1.13087  -1.12686
 Alpha  occ. eigenvalues --   -1.12658  -1.12654  -1.11623  -1.11594  -1.11558
 Alpha  occ. eigenvalues --   -0.17249  -0.16053  -0.10705  -0.10546
 Alpha virt. eigenvalues --   -0.07136  -0.05585  -0.04281  -0.03547  -0.02730
 Alpha virt. eigenvalues --   -0.02394  -0.01961  -0.01301  -0.01063  -0.00197
 Alpha virt. eigenvalues --    0.00064   0.00224   0.00322   0.00402   0.00527

  Beta  occ. eigenvalues --  -38.46293 -38.45959 -38.43732 -38.43501 -38.43445
  Beta  occ. eigenvalues --  -38.43102 -38.41919  -2.22171  -2.21842  -2.19571
  Beta  occ. eigenvalues --   -2.19499  -2.19292  -2.18996  -2.17900  -1.15889
  Beta  occ. eigenvalues --   -1.15838  -1.15802  -1.15533  -1.15473  -1.15441
  Beta  occ. eigenvalues --   -1.13308  -1.13267  -1.13253  -1.13201  -1.13153
  Beta  occ. eigenvalues --   -1.13134  -1.13028  -1.13017  -1.12967  -1.12648
  Beta  occ. eigenvalues --   -1.12647  -1.12600  -1.11597  -1.11541  -1.11534
  Beta  occ. eigenvalues --   -0.17103  -0.15365  -0.10562
  Beta virt. eigenvalues --   -0.07175  -0.06389  -0.05427  -0.04144  -0.03269
  Beta virt. eigenvalues --   -0.02310  -0.01640  -0.01517  -0.01279  -0.00886
  Beta virt. eigenvalues --    0.00029   0.00098   0.00282   0.00479   0.00586

 Mulliken charges and spin densities:
               1          2
     1  Na   1.707984   0.637907
     2  Na   1.088171  -0.080751
     3  Na   0.846138  -0.045549
     4  Na  -1.694114  -0.127138
     5  Na  -2.988404  -0.030899
     6  Na   1.857070   0.625220
     7  Na  -0.816846   0.021210
 Sum of Mulliken charges =  -0.00000   1.00000

 Dipole moment (field-independent basis, Debye):
    X=              4.1422    Y=              0.1857    Z=              0.4205  Tot=              4.1676
 Quadrupole moment (field-independent basis, Debye-Ang):
   XX=            -61.1435   YY=            -70.0059   ZZ=            -63.0057
   XY=              0.7959   XZ=              0.3123   YZ=             -5.3220

 Normal termination of Gaussian 16 at Mon Nov 13 15:32:30 2023.
