 Gaussian 16, Revision B.01,
 Gaussian 16:  ES64L-G16RevB.01 20-Dec-2017

 -------------------------
 #P B3LYP/6-311+g(d) force
 -------------------------

 ------------------------------
 Gaussian input prepared by ASE
 ------------------------------
 Symbolic Z-matrix:
 Charge =  0 Multiplicity = 2

                         Standard orientation:
 ---------------------------------------------------------------------
 Center     Atomic      Atomic             Coordinates (Angstroms)
 Number     Number       Type             X           Y           Z
 ---------------------------------------------------------------------
      1         11           0        0.275927   -1.965576   -0.117459
      2         11           0        2.388490   -0.773470   -1.891496
      3         11           0        1.860494   -0.829825    2.163509
      4         11           0        2.511291    1.360188    0.217084
      5         11           0       -0.272082    2.449378   -0.054325
      6         11           0       -1.942332    0.008228   -0.543479
      7         11           0       -4.821789   -0.248922    0.226166
 ---------------------------------------------------------------------

 SCF Done:  E(UB3LYP) =  -1136.09461396     A.U. after   28 cycles

 The electronic state is 2-A.
 Alpha  occ. eigenvalues --  -38.46314 -38.44770 -38.44452 -38.44114 -38.43977
 Alpha  occ. eigenvalues --  -38.43638 -38.43328  -2.22079  -2.20687  -2.20382
 Alpha  occ. eigenvalues --   -2.20066  -2.19972  -2.19617  -2.19194  -1.15773
 Alpha  occ. eigenvalues --   -1.15733  -1.15722  -1.14391  -1.14359  -1.14274
 Alpha  occ. eigenvalues --   -1.14089  -1.14062  -1.13965  -1.13805  -1.13743
 Alpha  occ. eigenvalues --   -1.13688  -1.13643  -1.13628  -1.13585  -1.13278
 Alpha  occ. eigenvalues --   -1.13270  -1.13222  -1.12894  -1.12840  -1.12823
 Alpha  occ. eigenvalues --   -0.18946  -0.14033  -0.11608  -0.11481
 Alpha virt. eigenvalues --   -0.08030  -0.04381  -0.03790  -0.03481  -0.03210
 Alpha virt. eigenvalues --   -0.02766  -0.02641  -0.01077  -0.00826  -0.00238
 Alpha virt. eigenvalues --    0.00061   0.00156   0.00196   0.00704   0.00901

  Beta  occ. eigenvalues --  -38.46336 -38.44690 -38.44350 -38.44107 -38.43937
  Beta  occ. eigenvalues --  -38.43601 -38.43355  -2.22119  -2.20541  -2.20195
  Beta  occ. eigenvalues --   -2.20051  -2.19906  -2.19557  -2.19245  -1.15800
  Beta  occ. eigenvalues --   -1.15760  -1.15750  -1.14287  -1.14254  -1.14174
  Beta  occ. eigenvalues --   -1.13962  -1.13928  -1.13840  -1.13792  -1.13751
  Beta  occ. eigenvalues --   -1.13665  -1.13614  -1.13555  -1.13513  -1.13239
  Beta  occ. eigenvalues --   -1.13193  -1.13172  -1.12929  -1.12871  -1.12847
  Beta  occ. eigenvalues --   -0.18172  -0.13992  -0.11359
  Beta virt. eigenvalues --   -0.07839  -0.07304  -0.04207  -0.03593  -0.03364
  Beta virt. eigenvalues --   -0.02913  -0.01834  -0.01757  -0.00876  -0.00622
  Beta virt. eigenvalues --   -0.00185   0.00030   0.00218   0.00396   0.00783

 Mulliken charges and spin densities:
               1          2
     1  Na  -0.459442   0.348222
     2  Na   1.554680   0.082489
     3  Na   0.291710   0.242037
     4  Na  -1.095122   0.427085
     5  Na   1.227232  -0.107447
     6  Na  -0.890351   0.109684
     7  Na  -0.628708  -0.102069
 Sum of Mulliken charges =  -0.00000   1.00000

 Dipole moment (field-independent basis, Debye):
    X=             -1.5406    Y=             -0.2833    Z=              0.2586  Tot=              1.5876
 Quadrupole moment (field-independent basis, Debye-Ang):
   XX=            -43.1241   YY=            -78.2970   ZZ=            -69.7430
   XY=              0.6427   XZ=             -3.3663   YZ=             -0.0632

 Normal termination of Gaussian 16 at Mon Nov 13 15:05:28 2023.
