 Gaussian 16, Revision B.01,
 Gaussian 16:  ES64L-G16RevB.01 20-Dec-2017

 -------------------------
 #P B3LYP/6-311+g(d) force
 -------------------------

 ------------------------------
 Gaussian input prepared by ASE
 ------------------------------
 Symbolic Z-matrix:
 Charge =  0 Multiplicity = 2

                         Standard orientation:
 ---------------------------------------------------------------------
 Center     Atomic      Atomic             Coordinates (Angstroms)
 Number     Number       Type             X           Y           Z
 ---------------------------------------------------------------------
      1         11           0       -0.267759   -0.002208   -1.572623
      2         11           0        1.287844    0.002088    1.651792
      3         11           0        1.834606   -1.916824   -0.596117
      4         11           0       -0.850261   -1.892046    0.693050
      5         11           0       -2.965537   -0.005265   -0.274273
      6         11           0       -0.858882    1.886209    0.693373
      7         11           0        1.819988    1.928046   -0.595203
 ---------------------------------------------------------------------

 SCF Done:  E(UB3LYP) =  -1136.10909065     A.U. after   18 cycles

 The electronic state is 2-A.
 Alpha  occ. eigenvalues --  -38.43740 -38.43645 -38.43462 -38.43457 -38.43453
 Alpha  occ. eigenvalues --  -38.43187 -38.43185  -2.19765  -2.19724  -2.19683
 Alpha  occ. eigenvalues --   -2.19461  -2.19454  -2.19279  -2.19274  -1.13575
 Alpha  occ. eigenvalues --   -1.13549  -1.13482  -1.13463  -1.13431  -1.13408
 Alpha  occ. eigenvalues --   -1.13377  -1.13375  -1.13272  -1.13159  -1.13139
 Alpha  occ. eigenvalues --   -1.13081  -1.13077  -1.13060  -1.13045  -1.12937
 Alpha  occ. eigenvalues --   -1.12931  -1.12903  -1.12898  -1.12833  -1.12830
 Alpha  occ. eigenvalues --   -0.20740  -0.13531  -0.12850  -0.11861
 Alpha virt. eigenvalues --   -0.05121  -0.04490  -0.04062  -0.03482  -0.03273
 Alpha virt. eigenvalues --   -0.02746  -0.01114  -0.00682  -0.00189   0.00346
 Alpha virt. eigenvalues --    0.00683   0.00714   0.01006   0.01026   0.01041

  Beta  occ. eigenvalues --  -38.43737 -38.43575 -38.43441 -38.43437 -38.43385
  Beta  occ. eigenvalues --  -38.43164 -38.43162  -2.19718  -2.19640  -2.19548
  Beta  occ. eigenvalues --   -2.19437  -2.19429  -2.19242  -2.19237  -1.13536
  Beta  occ. eigenvalues --   -1.13489  -1.13417  -1.13401  -1.13368  -1.13360
  Beta  occ. eigenvalues --   -1.13317  -1.13312  -1.13205  -1.13133  -1.13105
  Beta  occ. eigenvalues --   -1.13045  -1.13031  -1.13022  -1.13003  -1.12912
  Beta  occ. eigenvalues --   -1.12902  -1.12836  -1.12831  -1.12812  -1.12808
  Beta  occ. eigenvalues --   -0.19930  -0.13291  -0.12567
  Beta virt. eigenvalues --   -0.07621  -0.05056  -0.04482  -0.04061  -0.02738
  Beta virt. eigenvalues --   -0.02426  -0.01582  -0.01048  -0.00647   0.00030
  Beta virt. eigenvalues --    0.00383   0.00651   0.00738   0.01027   0.01034

 Mulliken charges and spin densities:
               1          2
     1  Na  -0.415327   0.336027
     2  Na   0.407978   0.141857
     3  Na   0.026319  -0.012490
     4  Na  -0.472771   0.318272
     5  Na   0.895075  -0.091194
     6  Na  -0.471481   0.318997
     7  Na   0.030207  -0.011470
 Sum of Mulliken charges =  -0.00000   1.00000

 Dipole moment (field-independent basis, Debye):
    X=              0.0845    Y=             -0.0027    Z=             -0.0158  Tot=              0.0861
 Quadrupole moment (field-independent basis, Debye-Ang):
   XX=            -58.7984   YY=            -67.8997   ZZ=            -68.9293
   XY=              0.0051   XZ=             -1.4982   YZ=             -0.0074

 Normal termination of Gaussian 16 at Mon Nov 13 17:09:58 2023.
