 Gaussian 16, Revision B.01,
 Gaussian 16:  ES64L-G16RevB.01 20-Dec-2017

 -------------------------
 #P B3LYP/6-311+g(d) force
 -------------------------

 ------------------------------
 Gaussian input prepared by ASE
 ------------------------------
 Symbolic Z-matrix:
 Charge =  0 Multiplicity = 2

                         Standard orientation:
 ---------------------------------------------------------------------
 Center     Atomic      Atomic             Coordinates (Angstroms)
 Number     Number       Type             X           Y           Z
 ---------------------------------------------------------------------
      1         11           0        0.000650   -1.219392   -0.446858
      2         11           0       -0.046338   -0.184854    2.116612
      3         11           0       -2.918762   -1.176541   -0.377920
      4         11           0       -1.584565    1.303183    0.399497
      5         11           0        0.044078    1.183522   -1.804034
      6         11           0        1.586787    1.279553    0.466459
      7         11           0        2.918150   -1.185471   -0.353756
 ---------------------------------------------------------------------

 SCF Done:  E(UB3LYP) =  -1136.07321446     A.U. after   25 cycles

 The electronic state is 2-A.
 Alpha  occ. eigenvalues --  -38.45052 -38.44364 -38.44338 -38.43594 -38.43540
 Alpha  occ. eigenvalues --  -38.43445 -38.43373  -2.21180  -2.20298  -2.20271
 Alpha  occ. eigenvalues --   -2.19844  -2.19801  -2.19779  -2.19501  -1.15059
 Alpha  occ. eigenvalues --   -1.14804  -1.14795  -1.14095  -1.14031  -1.13998
 Alpha  occ. eigenvalues --   -1.13974  -1.13882  -1.13860  -1.13838  -1.13594
 Alpha  occ. eigenvalues --   -1.13549  -1.13544  -1.13484  -1.13469  -1.13348
 Alpha  occ. eigenvalues --   -1.13319  -1.13288  -1.13043  -1.13002  -1.12987
 Alpha  occ. eigenvalues --   -0.21232  -0.14162  -0.12825  -0.11467
 Alpha virt. eigenvalues --   -0.05856  -0.04530  -0.03658  -0.03633  -0.02760
 Alpha virt. eigenvalues --   -0.02425  -0.01784  -0.00636  -0.00219   0.00287
 Alpha virt. eigenvalues --    0.00544   0.00655   0.00969   0.01019   0.01085

  Beta  occ. eigenvalues --  -38.44951 -38.44348 -38.44323 -38.43561 -38.43509
  Beta  occ. eigenvalues --  -38.43401 -38.43337  -2.21002  -2.20271  -2.20247
  Beta  occ. eigenvalues --   -2.19791  -2.19743  -2.19718  -2.19438  -1.14939
  Beta  occ. eigenvalues --   -1.14676  -1.14652  -1.14070  -1.14015  -1.13978
  Beta  occ. eigenvalues --   -1.13949  -1.13856  -1.13833  -1.13809  -1.13546
  Beta  occ. eigenvalues --   -1.13491  -1.13462  -1.13415  -1.13386  -1.13309
  Beta  occ. eigenvalues --   -1.13274  -1.13245  -1.12996  -1.12949  -1.12938
  Beta  occ. eigenvalues --   -0.20317  -0.13862  -0.11306
  Beta virt. eigenvalues --   -0.08390  -0.05766  -0.04135  -0.03178  -0.03075
  Beta virt. eigenvalues --   -0.02131  -0.01696  -0.01676  -0.00470  -0.00103
  Beta virt. eigenvalues --    0.00314   0.00599   0.00704   0.01023   0.01097

 Mulliken charges and spin densities:
               1          2
     1  Na  -0.860374   0.242639
     2  Na   0.390307   0.465645
     3  Na   0.015783   0.046480
     4  Na   0.074538  -0.009988
     5  Na   0.295372   0.243498
     6  Na   0.071519  -0.034086
     7  Na   0.012855   0.045812
 Sum of Mulliken charges =  -0.00000   1.00000

 Dipole moment (field-independent basis, Debye):
    X=             -0.0110    Y=             -0.2640    Z=             -0.1622  Tot=              0.3100
 Quadrupole moment (field-independent basis, Debye-Ang):
   XX=            -53.3758   YY=            -74.8704   ZZ=            -66.1542
   XY=              0.0317   XZ=              0.0428   YZ=              4.9963

 Normal termination of Gaussian 16 at Mon Nov 13 19:38:53 2023.
