 Gaussian 16, Revision B.01,
 Gaussian 16:  ES64L-G16RevB.01 20-Dec-2017

 -------------------------
 #P B3LYP/6-311+g(d) force
 -------------------------

 ------------------------------
 Gaussian input prepared by ASE
 ------------------------------
 Symbolic Z-matrix:
 Charge =  0 Multiplicity = 2

                         Standard orientation:
 ---------------------------------------------------------------------
 Center     Atomic      Atomic             Coordinates (Angstroms)
 Number     Number       Type             X           Y           Z
 ---------------------------------------------------------------------
      1         11           0        1.167026    0.464035    1.065830
      2         11           0       -3.121066   -1.332685   -0.488562
      3         11           0        2.716256   -1.971692    0.240060
      4         11           0       -0.278439   -2.009088    0.179256
      5         11           0       -1.257106    2.186008    1.501725
      6         11           0       -0.935976    0.646163   -1.053712
      7         11           0        1.709305    2.017259   -1.444598
 ---------------------------------------------------------------------

 SCF Done:  E(UB3LYP) =  -1136.10782311     A.U. after   20 cycles

 The electronic state is 2-A.
 Alpha  occ. eigenvalues --  -38.44164 -38.44126 -38.43803 -38.43741 -38.43199
 Alpha  occ. eigenvalues --  -38.43186 -38.43156  -2.20082  -2.20043  -2.19703
 Alpha  occ. eigenvalues --   -2.19639  -2.19380  -2.19336  -2.19245  -1.13819
 Alpha  occ. eigenvalues --   -1.13778  -1.13746  -1.13709  -1.13655  -1.13617
 Alpha  occ. eigenvalues --   -1.13464  -1.13405  -1.13375  -1.13321  -1.13315
 Alpha  occ. eigenvalues --   -1.13266  -1.13250  -1.13039  -1.13034  -1.12995
 Alpha  occ. eigenvalues --   -1.12953  -1.12892  -1.12859  -1.12844  -1.12799
 Alpha  occ. eigenvalues --   -0.19573  -0.13252  -0.12959  -0.11214
 Alpha virt. eigenvalues --   -0.05465  -0.05080  -0.04183  -0.03127  -0.03020
 Alpha virt. eigenvalues --   -0.02212  -0.01539  -0.01144  -0.00390   0.00236
 Alpha virt. eigenvalues --    0.00263   0.00381   0.00794   0.00886   0.00992

  Beta  occ. eigenvalues --  -38.44094 -38.44060 -38.43798 -38.43741 -38.43178
  Beta  occ. eigenvalues --  -38.43165 -38.43120  -2.19956  -2.19922  -2.19694
  Beta  occ. eigenvalues --   -2.19640  -2.19325  -2.19278  -2.19233  -1.13737
  Beta  occ. eigenvalues --   -1.13696  -1.13648  -1.13618  -1.13570  -1.13534
  Beta  occ. eigenvalues --   -1.13454  -1.13397  -1.13370  -1.13322  -1.13302
  Beta  occ. eigenvalues --   -1.13249  -1.13234  -1.13003  -1.12996  -1.12918
  Beta  occ. eigenvalues --   -1.12871  -1.12860  -1.12837  -1.12824  -1.12776
  Beta  occ. eigenvalues --   -0.18886  -0.13012  -0.12632
  Beta virt. eigenvalues --   -0.07210  -0.05294  -0.04924  -0.04045  -0.02543
  Beta virt. eigenvalues --   -0.02442  -0.01564  -0.01420  -0.00727  -0.00117
  Beta virt. eigenvalues --    0.00274   0.00320   0.00456   0.00813   0.00973

 Mulliken charges and spin densities:
               1          2
     1  Na   0.189083   0.361709
     2  Na   0.982861   0.007708
     3  Na   0.520482  -0.051202
     4  Na  -1.144135   0.064090
     5  Na  -0.169605   0.201258
     6  Na  -0.597204   0.350972
     7  Na   0.218517   0.065465
 Sum of Mulliken charges =  -0.00000   1.00000

 Dipole moment (field-independent basis, Debye):
    X=             -0.0246    Y=              0.2641    Z=             -0.0334  Tot=              0.2673
 Quadrupole moment (field-independent basis, Debye-Ang):
   XX=            -55.4474   YY=            -65.0593   ZZ=            -71.6206
   XY=             -0.6237   XZ=             -2.7436   YZ=              0.6080

 Normal termination of Gaussian 16 at Mon Nov 13 18:54:10 2023.
