 Gaussian 16, Revision B.01,
 Gaussian 16:  ES64L-G16RevB.01 20-Dec-2017

 -------------------------
 #P B3LYP/6-311+g(d) force
 -------------------------

 ------------------------------
 Gaussian input prepared by ASE
 ------------------------------
 Symbolic Z-matrix:
 Charge =  0 Multiplicity = 2

                         Standard orientation:
 ---------------------------------------------------------------------
 Center     Atomic      Atomic             Coordinates (Angstroms)
 Number     Number       Type             X           Y           Z
 ---------------------------------------------------------------------
      1         11           0        0.307147   -0.923407   -0.901042
      2         11           0        0.755591   -0.637808    2.051093
      3         11           0        3.096136   -0.899583    0.192290
      4         11           0        2.058387    1.470671   -1.323277
      5         11           0       -0.343720    1.662522    0.468352
      6         11           0       -3.269106    0.987259    0.380697
      7         11           0       -2.604435   -1.659655   -0.868113
 ---------------------------------------------------------------------

 SCF Done:  E(UB3LYP) =  -1136.09443928     A.U. after   28 cycles

 The electronic state is 2-A.
 Alpha  occ. eigenvalues --  -38.45361 -38.44947 -38.44376 -38.43974 -38.43813
 Alpha  occ. eigenvalues --  -38.43680 -38.42729  -2.21234  -2.20924  -2.20381
 Alpha  occ. eigenvalues --   -2.19981  -2.19870  -2.19679  -2.18798  -1.14930
 Alpha  occ. eigenvalues --   -1.14907  -1.14868  -1.14655  -1.14621  -1.14553
 Alpha  occ. eigenvalues --   -1.14129  -1.13985  -1.13968  -1.13765  -1.13688
 Alpha  occ. eigenvalues --   -1.13614  -1.13521  -1.13487  -1.13469  -1.13339
 Alpha  occ. eigenvalues --   -1.13306  -1.13290  -1.12497  -1.12441  -1.12412
 Alpha  occ. eigenvalues --   -0.19971  -0.14780  -0.11796  -0.11212
 Alpha virt. eigenvalues --   -0.07090  -0.05097  -0.04003  -0.03360  -0.02784
 Alpha virt. eigenvalues --   -0.02533  -0.02155  -0.00785  -0.00435   0.00058
 Alpha virt. eigenvalues --    0.00224   0.00368   0.00479   0.00754   0.00930

  Beta  occ. eigenvalues --  -38.45362 -38.44936 -38.44278 -38.43947 -38.43779
  Beta  occ. eigenvalues --  -38.43639 -38.42703  -2.21238  -2.20911  -2.20203
  Beta  occ. eigenvalues --   -2.19925  -2.19821  -2.19606  -2.18755  -1.14921
  Beta  occ. eigenvalues --   -1.14911  -1.14867  -1.14651  -1.14555  -1.14553
  Beta  occ. eigenvalues --   -1.14016  -1.13858  -1.13846  -1.13720  -1.13645
  Beta  occ. eigenvalues --   -1.13542  -1.13490  -1.13448  -1.13436  -1.13296
  Beta  occ. eigenvalues --   -1.13262  -1.13223  -1.12474  -1.12394  -1.12361
  Beta  occ. eigenvalues --   -0.19226  -0.14464  -0.10959
  Beta virt. eigenvalues --   -0.07791  -0.06913  -0.04795  -0.03398  -0.03078
  Beta virt. eigenvalues --   -0.02527  -0.02078  -0.01395  -0.00694  -0.00159
  Beta virt. eigenvalues --    0.00137   0.00267   0.00407   0.00628   0.00800

 Mulliken charges and spin densities:
               1          2
     1  Na  -0.824114   0.255319
     2  Na   0.008369   0.272526
     3  Na   0.355920   0.017801
     4  Na   0.564060   0.161605
     5  Na  -0.140831   0.250528
     6  Na  -0.384231  -0.134989
     7  Na   0.420826   0.177209
 Sum of Mulliken charges =  -0.00000   1.00000

 Dipole moment (field-independent basis, Debye):
    X=             -0.1806    Y=              0.0667    Z=              0.3841  Tot=              0.4297
 Quadrupole moment (field-independent basis, Debye-Ang):
   XX=            -46.7224   YY=            -78.1507   ZZ=            -69.5094
   XY=             -1.2732   XZ=             -1.6905   YZ=              0.5339

 Normal termination of Gaussian 16 at Mon Nov 13 15:57:18 2023.
