 Gaussian 16, Revision B.01,
 Gaussian 16:  ES64L-G16RevB.01 20-Dec-2017

 -------------------------
 #P B3LYP/6-311+g(d) force
 -------------------------

 ------------------------------
 Gaussian input prepared by ASE
 ------------------------------
 Symbolic Z-matrix:
 Charge =  0 Multiplicity = 2

                         Standard orientation:
 ---------------------------------------------------------------------
 Center     Atomic      Atomic             Coordinates (Angstroms)
 Number     Number       Type             X           Y           Z
 ---------------------------------------------------------------------
      1         11           0       -0.530405   -0.800744   -1.421088
      2         11           0       -0.528362   -0.793461    1.424156
      3         11           0       -3.001922   -0.292945    0.002040
      4         11           0       -0.895869    1.700694   -0.005136
      5         11           0        1.552432    0.916676    1.341070
      6         11           0        1.553011    0.909441   -1.344302
      7         11           0        1.851116   -1.639661    0.003260
 ---------------------------------------------------------------------

 SCF Done:  E(UB3LYP) =  -1136.06051480     A.U. after   23 cycles

 The electronic state is 2-A.
 Alpha  occ. eigenvalues --  -38.44525 -38.44469 -38.44464 -38.44250 -38.44240
 Alpha  occ. eigenvalues --  -38.43247 -38.42772  -2.20751  -2.20678  -2.20588
 Alpha  occ. eigenvalues --   -2.20535  -2.20530  -2.19387  -2.19015  -1.14821
 Alpha  occ. eigenvalues --   -1.14733  -1.14684  -1.14567  -1.14372  -1.14306
 Alpha  occ. eigenvalues --   -1.14300  -1.14220  -1.14173  -1.14104  -1.14084
 Alpha  occ. eigenvalues --   -1.14064  -1.14023  -1.13993  -1.13952  -1.13082
 Alpha  occ. eigenvalues --   -1.13022  -1.12971  -1.12741  -1.12652  -1.12592
 Alpha  occ. eigenvalues --   -0.22009  -0.14440  -0.13080  -0.11929
 Alpha virt. eigenvalues --   -0.05796  -0.04238  -0.03851  -0.03774  -0.02806
 Alpha virt. eigenvalues --   -0.02697  -0.01363  -0.00322  -0.00279   0.00281
 Alpha virt. eigenvalues --    0.00708   0.00981   0.01007   0.01068   0.01085

  Beta  occ. eigenvalues --  -38.44522 -38.44412 -38.44407 -38.44179 -38.44170
  Beta  occ. eigenvalues --  -38.43234 -38.42753  -2.20652  -2.20577  -2.20548
  Beta  occ. eigenvalues --   -2.20449  -2.20409  -2.19370  -2.18988  -1.14757
  Beta  occ. eigenvalues --   -1.14629  -1.14577  -1.14513  -1.14302  -1.14250
  Beta  occ. eigenvalues --   -1.14248  -1.14166  -1.14160  -1.14034  -1.14006
  Beta  occ. eigenvalues --   -1.13993  -1.13955  -1.13914  -1.13840  -1.13078
  Beta  occ. eigenvalues --   -1.12968  -1.12949  -1.12731  -1.12584  -1.12564
  Beta  occ. eigenvalues --   -0.21150  -0.14190  -0.11672
  Beta virt. eigenvalues --   -0.08527  -0.05731  -0.03802  -0.03421  -0.03237
  Beta virt. eigenvalues --   -0.02051  -0.01903  -0.01308  -0.00264  -0.00068
  Beta virt. eigenvalues --    0.00315   0.00769   0.01024   0.01085   0.01123

 Mulliken charges and spin densities:
               1          2
     1  Na  -0.220963   0.335511
     2  Na  -0.218059   0.335924
     3  Na   0.917471  -0.002829
     4  Na  -0.935363   0.120700
     5  Na   0.398159   0.123575
     6  Na   0.401450   0.125709
     7  Na  -0.342694  -0.038590
 Sum of Mulliken charges =  -0.00000   1.00000

 Dipole moment (field-independent basis, Debye):
    X=             -0.3923    Y=             -0.0623    Z=              0.0001  Tot=              0.3972
 Quadrupole moment (field-independent basis, Debye-Ang):
   XX=            -55.7409   YY=            -76.2454   ZZ=            -65.0219
   XY=             -0.0986   XZ=             -0.0024   YZ=             -0.0052

 Normal termination of Gaussian 16 at Mon Nov 13 20:07:59 2023.
