 Gaussian 16, Revision B.01,
 Gaussian 16:  ES64L-G16RevB.01 20-Dec-2017

 -------------------------
 #P B3LYP/6-311+g(d) force
 -------------------------

 ------------------------------
 Gaussian input prepared by ASE
 ------------------------------
 Symbolic Z-matrix:
 Charge =  0 Multiplicity = 2

                         Standard orientation:
 ---------------------------------------------------------------------
 Center     Atomic      Atomic             Coordinates (Angstroms)
 Number     Number       Type             X           Y           Z
 ---------------------------------------------------------------------
      1         11           0        0.206433   -0.018880   -1.488242
      2         11           0        1.223114    1.498315    0.903108
      3         11           0        3.128837   -0.010099   -0.842920
      4         11           0        1.226206   -1.476187    0.937664
      5         11           0       -1.249302    0.020043    1.769868
      6         11           0       -2.264917    1.481460   -0.656370
      7         11           0       -2.270371   -1.494653   -0.623108
 ---------------------------------------------------------------------

 SCF Done:  E(UB3LYP) =  -1136.09910376     A.U. after   25 cycles

 The electronic state is 2-A.
 Alpha  occ. eigenvalues --  -38.44366 -38.44356 -38.44283 -38.43750 -38.43727
 Alpha  occ. eigenvalues --  -38.42819 -38.42283  -2.20382  -2.20357  -2.20265
 Alpha  occ. eigenvalues --   -2.19862  -2.19830  -2.18992  -2.18392  -1.14207
 Alpha  occ. eigenvalues --   -1.14065  -1.14044  -1.14035  -1.14009  -1.13985
 Alpha  occ. eigenvalues --   -1.13943  -1.13898  -1.13878  -1.13696  -1.13531
 Alpha  occ. eigenvalues --   -1.13508  -1.13461  -1.13433  -1.13356  -1.12676
 Alpha  occ. eigenvalues --   -1.12658  -1.12605  -1.12075  -1.12056  -1.12019
 Alpha  occ. eigenvalues --   -0.20775  -0.14710  -0.12260  -0.11195
 Alpha virt. eigenvalues --   -0.06208  -0.04900  -0.04175  -0.03285  -0.02447
 Alpha virt. eigenvalues --   -0.02312  -0.01793  -0.00746  -0.00291   0.00274
 Alpha virt. eigenvalues --    0.00446   0.00547   0.00819   0.00898   0.00955

  Beta  occ. eigenvalues --  -38.44326 -38.44316 -38.44284 -38.43703 -38.43680
  Beta  occ. eigenvalues --  -38.42790 -38.42266  -2.20310  -2.20285  -2.20269
  Beta  occ. eigenvalues --   -2.19776  -2.19744  -2.18950  -2.18368  -1.14170
  Beta  occ. eigenvalues --   -1.14043  -1.14002  -1.13976  -1.13946  -1.13935
  Beta  occ. eigenvalues --   -1.13923  -1.13903  -1.13818  -1.13652  -1.13467
  Beta  occ. eigenvalues --   -1.13428  -1.13406  -1.13373  -1.13285  -1.12641
  Beta  occ. eigenvalues --   -1.12587  -1.12565  -1.12068  -1.12016  -1.11970
  Beta  occ. eigenvalues --   -0.19889  -0.14546  -0.10969
  Beta virt. eigenvalues --   -0.07979  -0.06014  -0.04165  -0.04151  -0.02871
  Beta virt. eigenvalues --   -0.01811  -0.01776  -0.01582  -0.00290  -0.00276
  Beta virt. eigenvalues --    0.00312   0.00516   0.00751   0.00814   0.00947

 Mulliken charges and spin densities:
               1          2
     1  Na  -0.470213   0.223803
     2  Na  -0.568898   0.263330
     3  Na   1.102103  -0.035875
     4  Na  -0.568722   0.261776
     5  Na   0.414775  -0.027305
     6  Na   0.047313   0.154474
     7  Na   0.043642   0.159797
 Sum of Mulliken charges =  -0.00000   1.00000

 Dipole moment (field-independent basis, Debye):
    X=              0.1514    Y=              0.0025    Z=              0.1331  Tot=              0.2016
 Quadrupole moment (field-independent basis, Debye-Ang):
   XX=            -51.9419   YY=            -62.8406   ZZ=            -80.1608
   XY=              0.0027   XZ=             -0.4724   YZ=             -0.2920

 Normal termination of Gaussian 16 at Mon Nov 13 18:02:52 2023.
