 Gaussian 16, Revision B.01,
 Gaussian 16:  ES64L-G16RevB.01 20-Dec-2017

 -------------------------
 #P B3LYP/6-311+g(d) force
 -------------------------

 ------------------------------
 Gaussian input prepared by ASE
 ------------------------------
 Symbolic Z-matrix:
 Charge =  0 Multiplicity = 2

                         Standard orientation:
 ---------------------------------------------------------------------
 Center     Atomic      Atomic             Coordinates (Angstroms)
 Number     Number       Type             X           Y           Z
 ---------------------------------------------------------------------
      1         11           0       -0.073143   -0.181105   -1.300029
      2         11           0        0.700573   -0.422268    1.577886
      3         11           0        2.581235   -1.369450   -0.561166
      4         11           0        2.098099    1.562857   -0.185599
      5         11           0       -0.751953    2.024141    0.613097
      6         11           0       -2.942808    0.406951   -0.650720
      7         11           0       -1.612003   -2.021127    0.506530
 ---------------------------------------------------------------------

 SCF Done:  E(UB3LYP) =  -1136.10156630     A.U. after   21 cycles

 The electronic state is 2-A.
 Alpha  occ. eigenvalues --  -38.44419 -38.44061 -38.43604 -38.43475 -38.43379
 Alpha  occ. eigenvalues --  -38.43351 -38.42724  -2.20399  -2.20046  -2.19683
 Alpha  occ. eigenvalues --   -2.19638  -2.19574  -2.19456  -2.18799  -1.14133
 Alpha  occ. eigenvalues --   -1.14054  -1.14039  -1.13853  -1.13720  -1.13677
 Alpha  occ. eigenvalues --   -1.13555  -1.13456  -1.13382  -1.13293  -1.13258
 Alpha  occ. eigenvalues --   -1.13238  -1.13224  -1.13187  -1.13148  -1.13073
 Alpha  occ. eigenvalues --   -1.13048  -1.13032  -1.12495  -1.12432  -1.12404
 Alpha  occ. eigenvalues --   -0.20662  -0.14449  -0.12182  -0.11363
 Alpha virt. eigenvalues --   -0.05901  -0.04874  -0.03908  -0.03474  -0.02561
 Alpha virt. eigenvalues --   -0.02154  -0.01751  -0.00769  -0.00162   0.00288
 Alpha virt. eigenvalues --    0.00410   0.00531   0.00837   0.00932   0.01038

  Beta  occ. eigenvalues --  -38.44401 -38.44042 -38.43591 -38.43458 -38.43297
  Beta  occ. eigenvalues --  -38.43295 -38.42703  -2.20368  -2.20015  -2.19661
  Beta  occ. eigenvalues --   -2.19545  -2.19435  -2.19422  -2.18768  -1.14109
  Beta  occ. eigenvalues --   -1.14038  -1.14000  -1.13830  -1.13680  -1.13644
  Beta  occ. eigenvalues --   -1.13514  -1.13396  -1.13324  -1.13270  -1.13205
  Beta  occ. eigenvalues --   -1.13181  -1.13149  -1.13095  -1.13062  -1.13038
  Beta  occ. eigenvalues --   -1.13013  -1.12959  -1.12476  -1.12404  -1.12347
  Beta  occ. eigenvalues --   -0.19906  -0.14109  -0.11895
  Beta virt. eigenvalues --   -0.07268  -0.05796  -0.04869  -0.03580  -0.02942
  Beta virt. eigenvalues --   -0.01838  -0.01594  -0.01120  -0.00733   0.00035
  Beta virt. eigenvalues --    0.00327   0.00435   0.00515   0.00890   0.00947

 Mulliken charges and spin densities:
               1          2
     1  Na  -1.040784   0.118972
     2  Na   0.075512   0.276261
     3  Na   0.245213   0.071769
     4  Na   0.405667   0.208453
     5  Na  -0.293907   0.137924
     6  Na   0.931206   0.035699
     7  Na  -0.322908   0.150924
 Sum of Mulliken charges =  -0.00000   1.00000

 Dipole moment (field-independent basis, Debye):
    X=             -0.0417    Y=             -0.2117    Z=              0.0059  Tot=              0.2159
 Quadrupole moment (field-independent basis, Debye-Ang):
   XX=            -52.3334   YY=            -69.6445   ZZ=            -71.8343
   XY=             -0.4599   XZ=             -0.5600   YZ=             -0.0442

 Normal termination of Gaussian 16 at Mon Nov 13 17:08:28 2023.
