 Gaussian 16, Revision B.01,
 Gaussian 16:  ES64L-G16RevB.01 20-Dec-2017

 -------------------------
 #P B3LYP/6-311+g(d) force
 -------------------------

 ------------------------------
 Gaussian input prepared by ASE
 ------------------------------
 Symbolic Z-matrix:
 Charge =  0 Multiplicity = 2

                         Standard orientation:
 ---------------------------------------------------------------------
 Center     Atomic      Atomic             Coordinates (Angstroms)
 Number     Number       Type             X           Y           Z
 ---------------------------------------------------------------------
      1         11           0        0.422351    0.005576   -1.880614
      2         11           0        1.423710   -1.987374   -0.052737
      3         11           0       -3.948337   -0.132499   -0.044298
      4         11           0       -1.114916   -0.640046    0.209448
      5         11           0        2.454744    0.698307   -0.273391
      6         11           0       -0.064604    2.045937    0.100283
      7         11           0        0.827051    0.010099    1.941309
 ---------------------------------------------------------------------

 SCF Done:  E(UB3LYP) =  -1136.05654710     A.U. after   26 cycles

 The electronic state is 2-A.
 Alpha  occ. eigenvalues --  -38.45586 -38.45255 -38.45032 -38.44654 -38.43640
 Alpha  occ. eigenvalues --  -38.42723 -38.42661  -2.21509  -2.21377  -2.21262
 Alpha  occ. eigenvalues --   -2.20870  -2.19970  -2.18879  -2.18811  -1.15388
 Alpha  occ. eigenvalues --   -1.15306  -1.15134  -1.15081  -1.15063  -1.15019
 Alpha  occ. eigenvalues --   -1.15005  -1.15002  -1.14828  -1.14479  -1.14461
 Alpha  occ. eigenvalues --   -1.14445  -1.13663  -1.13627  -1.13532  -1.12591
 Alpha  occ. eigenvalues --   -1.12555  -1.12510  -1.12481  -1.12463  -1.12365
 Alpha  occ. eigenvalues --   -0.21567  -0.13659  -0.12620  -0.11976
 Alpha virt. eigenvalues --   -0.06966  -0.03808  -0.03598  -0.03286  -0.02806
 Alpha virt. eigenvalues --   -0.02619  -0.02183  -0.00411  -0.00361   0.00126
 Alpha virt. eigenvalues --    0.00432   0.00443   0.00590   0.00874   0.01148

  Beta  occ. eigenvalues --  -38.45605 -38.45149 -38.44922 -38.44624 -38.43611
  Beta  occ. eigenvalues --  -38.42707 -38.42645  -2.21411  -2.21319  -2.21064
  Beta  occ. eigenvalues --   -2.20822  -2.19925  -2.18858  -2.18792  -1.15285
  Beta  occ. eigenvalues --   -1.15166  -1.15128  -1.15039  -1.15027  -1.14977
  Beta  occ. eigenvalues --   -1.14923  -1.14874  -1.14681  -1.14433  -1.14423
  Beta  occ. eigenvalues --   -1.14348  -1.13649  -1.13512  -1.13509  -1.12588
  Beta  occ. eigenvalues --   -1.12552  -1.12470  -1.12430  -1.12386  -1.12355
  Beta  occ. eigenvalues --   -0.20645  -0.13495  -0.11557
  Beta virt. eigenvalues --   -0.08267  -0.06813  -0.03477  -0.03192  -0.02826
  Beta virt. eigenvalues --   -0.02178  -0.01875  -0.01871  -0.00383  -0.00123
  Beta virt. eigenvalues --    0.00168   0.00438   0.00578   0.00698   0.00918

 Mulliken charges and spin densities:
               1          2
     1  Na  -0.130788   0.482466
     2  Na  -0.434248  -0.040082
     3  Na   0.540537  -0.124858
     4  Na  -0.018236   0.224819
     5  Na   0.312508   0.116049
     6  Na  -0.060330  -0.046813
     7  Na  -0.209444   0.388418
 Sum of Mulliken charges =  -0.00000   1.00000

 Dipole moment (field-independent basis, Debye):
    X=             -0.8487    Y=              0.2920    Z=              0.0063  Tot=              0.8976
 Quadrupole moment (field-independent basis, Debye-Ang):
   XX=            -50.2682   YY=            -76.2661   ZZ=            -66.2977
   XY=             -1.0651   XZ=              0.5064   YZ=              0.0280

 Normal termination of Gaussian 16 at Mon Nov 13 20:23:20 2023.
