 Gaussian 16, Revision B.01,
 Gaussian 16:  ES64L-G16RevB.01 20-Dec-2017

 -------------------------
 #P B3LYP/6-311+g(d) force
 -------------------------

 ------------------------------
 Gaussian input prepared by ASE
 ------------------------------
 Symbolic Z-matrix:
 Charge =  0 Multiplicity = 2

                         Standard orientation:
 ---------------------------------------------------------------------
 Center     Atomic      Atomic             Coordinates (Angstroms)
 Number     Number       Type             X           Y           Z
 ---------------------------------------------------------------------
      1         11           0        0.616198   -1.587524    0.009010
      2         11           0        0.585835    0.748806    1.366883
      3         11           0        2.971629    0.011906   -0.001774
      4         11           0       -1.498981    1.801371   -0.009299
      5         11           0        0.584952    0.729651   -1.375260
      6         11           0       -1.627428   -0.844782    1.364052
      7         11           0       -1.632205   -0.859427   -1.353613
 ---------------------------------------------------------------------

 SCF Done:  E(UB3LYP) =  -1136.03745271     A.U. after   25 cycles

 The electronic state is 2-A.
 Alpha  occ. eigenvalues --  -38.44622 -38.44615 -38.44604 -38.44597 -38.44538
 Alpha  occ. eigenvalues --  -38.43476 -38.43263  -2.21071  -2.21001  -2.20888
 Alpha  occ. eigenvalues --   -2.20816  -2.20586  -2.19863  -2.19449  -1.15230
 Alpha  occ. eigenvalues --   -1.15048  -1.14975  -1.14859  -1.14832  -1.14712
 Alpha  occ. eigenvalues --   -1.14532  -1.14457  -1.14406  -1.14399  -1.14317
 Alpha  occ. eigenvalues --   -1.14257  -1.14221  -1.14166  -1.14149  -1.13504
 Alpha  occ. eigenvalues --   -1.13447  -1.13352  -1.13146  -1.13076  -1.13003
 Alpha  occ. eigenvalues --   -0.22375  -0.14410  -0.13273  -0.12093
 Alpha virt. eigenvalues --   -0.05651  -0.04123  -0.03888  -0.03626  -0.02889
 Alpha virt. eigenvalues --   -0.02786  -0.01314  -0.00366  -0.00202   0.00271
 Alpha virt. eigenvalues --    0.00777   0.01010   0.01080   0.01085   0.01107

  Beta  occ. eigenvalues --  -38.44564 -38.44547 -38.44543 -38.44536 -38.44526
  Beta  occ. eigenvalues --  -38.43449 -38.43249  -2.20947  -2.20876  -2.20787
  Beta  occ. eigenvalues --   -2.20715  -2.20583  -2.19826  -2.19430  -1.15165
  Beta  occ. eigenvalues --   -1.14953  -1.14864  -1.14789  -1.14741  -1.14623
  Beta  occ. eigenvalues --   -1.14460  -1.14376  -1.14332  -1.14314  -1.14248
  Beta  occ. eigenvalues --   -1.14240  -1.14159  -1.14129  -1.14096  -1.13487
  Beta  occ. eigenvalues --   -1.13338  -1.13330  -1.13140  -1.13000  -1.12999
  Beta  occ. eigenvalues --   -0.21486  -0.14184  -0.11815
  Beta virt. eigenvalues --   -0.08637  -0.05575  -0.03641  -0.03350  -0.03338
  Beta virt. eigenvalues --   -0.02097  -0.01930  -0.01269  -0.00191  -0.00092
  Beta virt. eigenvalues --    0.00311   0.00843   0.01109   0.01118   0.01141

 Mulliken charges and spin densities:
               1          2
     1  Na  -0.719839   0.219368
     2  Na  -0.111502   0.349960
     3  Na   0.852532  -0.055321
     4  Na  -0.332714   0.015606
     5  Na  -0.109593   0.347329
     6  Na   0.214862   0.061493
     7  Na   0.206254   0.061564
 Sum of Mulliken charges =  -0.00000   1.00000

 Dipole moment (field-independent basis, Debye):
    X=              0.2160    Y=              0.0815    Z=             -0.0011  Tot=              0.2308
 Quadrupole moment (field-independent basis, Debye-Ang):
   XX=            -56.0226   YY=            -76.6786   ZZ=            -64.4906
   XY=             -0.1415   XZ=              0.0096   YZ=              0.0003

 Normal termination of Gaussian 16 at Mon Nov 13 20:37:46 2023.
