 Gaussian 16, Revision B.01,
 Gaussian 16:  ES64L-G16RevB.01 20-Dec-2017

 -------------------------
 #P B3LYP/6-311+g(d) force
 -------------------------

 ------------------------------
 Gaussian input prepared by ASE
 ------------------------------
 Symbolic Z-matrix:
 Charge =  0 Multiplicity = 2

                         Standard orientation:
 ---------------------------------------------------------------------
 Center     Atomic      Atomic             Coordinates (Angstroms)
 Number     Number       Type             X           Y           Z
 ---------------------------------------------------------------------
      1         11           0       -0.328830    2.083788    1.391229
      2         11           0       -1.476951    1.802961   -1.341637
      3         11           0        3.732263    0.279113   -0.636639
      4         11           0        0.754442   -0.013929   -0.470709
      5         11           0       -1.115922   -2.074223   -1.615834
      6         11           0       -1.955245   -0.346633    0.698926
      7         11           0        0.390243   -1.731077    1.974665
 ---------------------------------------------------------------------

 SCF Done:  E(UB3LYP) =  -1136.10280741     A.U. after   23 cycles

 The electronic state is 2-A.
 Alpha  occ. eigenvalues --  -38.44476 -38.43930 -38.43780 -38.43650 -38.43626
 Alpha  occ. eigenvalues --  -38.43302 -38.42344  -2.20394  -2.19730  -2.19703
 Alpha  occ. eigenvalues --   -2.19657  -2.19626  -2.19496  -2.18634  -1.14145
 Alpha  occ. eigenvalues --   -1.14031  -1.13970  -1.13550  -1.13477  -1.13436
 Alpha  occ. eigenvalues --   -1.13391  -1.13359  -1.13359  -1.13356  -1.13327
 Alpha  occ. eigenvalues --   -1.13310  -1.13284  -1.13266  -1.13184  -1.13136
 Alpha  occ. eigenvalues --   -1.13097  -1.13018  -1.12350  -1.12268  -1.12234
 Alpha  occ. eigenvalues --   -0.19992  -0.12604  -0.12370  -0.12111
 Alpha virt. eigenvalues --   -0.05417  -0.04406  -0.04246  -0.03150  -0.02863
 Alpha virt. eigenvalues --   -0.02736  -0.01158  -0.00835  -0.00759   0.00305
 Alpha virt. eigenvalues --    0.00517   0.00582   0.00732   0.00928   0.00979

  Beta  occ. eigenvalues --  -38.44413 -38.43912 -38.43742 -38.43619 -38.43601
  Beta  occ. eigenvalues --  -38.43269 -38.42312  -2.20282  -2.19698  -2.19636
  Beta  occ. eigenvalues --   -2.19605  -2.19579  -2.19446  -2.18585  -1.14063
  Beta  occ. eigenvalues --   -1.13946  -1.13892  -1.13524  -1.13433  -1.13407
  Beta  occ. eigenvalues --   -1.13339  -1.13337  -1.13336  -1.13307  -1.13292
  Beta  occ. eigenvalues --   -1.13263  -1.13230  -1.13226  -1.13150  -1.13095
  Beta  occ. eigenvalues --   -1.13009  -1.12988  -1.12270  -1.12221  -1.12206
  Beta  occ. eigenvalues --   -0.19059  -0.12296  -0.11883
  Beta virt. eigenvalues --   -0.08260  -0.05148  -0.04077  -0.03932  -0.02635
  Beta virt. eigenvalues --   -0.02534  -0.01911  -0.01069  -0.00754  -0.00425
  Beta virt. eigenvalues --    0.00342   0.00618   0.00650   0.00799   0.00950

 Mulliken charges and spin densities:
               1          2
     1  Na   0.375747   0.304759
     2  Na   0.206159   0.255017
     3  Na   0.219815  -0.224735
     4  Na  -1.900809  -0.327314
     5  Na   0.407519   0.307725
     6  Na   0.634127   0.323470
     7  Na   0.057440   0.361078
 Sum of Mulliken charges =  -0.00000   1.00000

 Dipole moment (field-independent basis, Debye):
    X=             -0.2006    Y=             -0.2157    Z=              0.1502  Tot=              0.3306
 Quadrupole moment (field-independent basis, Debye-Ang):
   XX=            -64.7477   YY=            -67.1918   ZZ=            -60.2321
   XY=             -0.4113   XZ=              1.3197   YZ=             -0.1863

 Normal termination of Gaussian 16 at Mon Nov 13 20:18:21 2023.
