 Gaussian 16, Revision B.01,
 Gaussian 16:  ES64L-G16RevB.01 20-Dec-2017

 -------------------------
 #P B3LYP/6-311+g(d) force
 -------------------------

 ------------------------------
 Gaussian input prepared by ASE
 ------------------------------
 Symbolic Z-matrix:
 Charge =  0 Multiplicity = 2

                         Standard orientation:
 ---------------------------------------------------------------------
 Center     Atomic      Atomic             Coordinates (Angstroms)
 Number     Number       Type             X           Y           Z
 ---------------------------------------------------------------------
      1         11           0       -1.588470    3.248478    0.649941
      2         11           0        5.304896    0.791203   -0.644181
      3         11           0        2.502599   -2.663229    0.644415
      4         11           0        2.415233    0.255388   -0.033341
      5         11           0       -0.572359    0.537639   -0.130018
      6         11           0       -2.661767   -1.605601    0.078240
      7         11           0       -5.400132   -0.563879   -0.565056
 ---------------------------------------------------------------------

 SCF Done:  E(UB3LYP) =  -1136.09612417     A.U. after   22 cycles

 The electronic state is 2-A.
 Alpha  occ. eigenvalues --  -38.45339 -38.44985 -38.44130 -38.44129 -38.44062
 Alpha  occ. eigenvalues --  -38.43964 -38.43604  -2.21154  -2.20827  -2.20099
 Alpha  occ. eigenvalues --   -2.19926  -2.19871  -2.19829  -2.19567  -1.14848
 Alpha  occ. eigenvalues --   -1.14797  -1.14761  -1.14521  -1.14444  -1.14424
 Alpha  occ. eigenvalues --   -1.13839  -1.13756  -1.13721  -1.13661  -1.13640
 Alpha  occ. eigenvalues --   -1.13577  -1.13572  -1.13559  -1.13519  -1.13506
 Alpha  occ. eigenvalues --   -1.13463  -1.13381  -1.13225  -1.13188  -1.13160
 Alpha  occ. eigenvalues --   -0.17041  -0.14376  -0.11572  -0.11480
 Alpha virt. eigenvalues --   -0.06751  -0.05554  -0.04142  -0.03329  -0.02803
 Alpha virt. eigenvalues --   -0.02658  -0.02079  -0.01790  -0.00834  -0.00736
 Alpha virt. eigenvalues --   -0.00345  -0.00084   0.00364   0.00414   0.00504

  Beta  occ. eigenvalues --  -38.45280 -38.44875 -38.44126 -38.44117 -38.44042
  Beta  occ. eigenvalues --  -38.43969 -38.43596  -2.21043  -2.20625  -2.20085
  Beta  occ. eigenvalues --   -2.19920  -2.19845  -2.19828  -2.19555  -1.14778
  Beta  occ. eigenvalues --   -1.14722  -1.14676  -1.14385  -1.14307  -1.14288
  Beta  occ. eigenvalues --   -1.13795  -1.13730  -1.13703  -1.13650  -1.13629
  Beta  occ. eigenvalues --   -1.13573  -1.13572  -1.13557  -1.13499  -1.13481
  Beta  occ. eigenvalues --   -1.13466  -1.13366  -1.13223  -1.13180  -1.13134
  Beta  occ. eigenvalues --   -0.16452  -0.13873  -0.11323
  Beta virt. eigenvalues --   -0.07913  -0.06330  -0.05096  -0.03990  -0.03176
  Beta virt. eigenvalues --   -0.02516  -0.02257  -0.01740  -0.01301  -0.00691
  Beta virt. eigenvalues --   -0.00249  -0.00171   0.00025   0.00404   0.00464

 Mulliken charges and spin densities:
               1          2
     1  Na   1.004825   0.011973
     2  Na   0.855583   0.188532
     3  Na   0.361370   0.235999
     4  Na  -1.798919   0.427440
     5  Na  -0.938775   0.029195
     6  Na   0.032480   0.025215
     7  Na   0.483437   0.081647
 Sum of Mulliken charges =  -0.00000   1.00000

 Dipole moment (field-independent basis, Debye):
    X=              0.7451    Y=             -0.0053    Z=              0.2546  Tot=              0.7875
 Quadrupole moment (field-independent basis, Debye-Ang):
   XX=            -54.9980   YY=            -64.3062   ZZ=            -72.5762
   XY=            -10.8632   XZ=              0.0286   YZ=             -1.1369

 Normal termination of Gaussian 16 at Mon Nov 13 15:00:34 2023.
