 Gaussian 16, Revision B.01,
 Gaussian 16:  ES64L-G16RevB.01 20-Dec-2017

 -------------------------
 #P B3LYP/6-311+g(d) force
 -------------------------

 ------------------------------
 Gaussian input prepared by ASE
 ------------------------------
 Symbolic Z-matrix:
 Charge =  0 Multiplicity = 2

                         Standard orientation:
 ---------------------------------------------------------------------
 Center     Atomic      Atomic             Coordinates (Angstroms)
 Number     Number       Type             X           Y           Z
 ---------------------------------------------------------------------
      1         11           0       -0.000324    3.431294   -0.736137
      2         11           0        2.721848   -1.302159   -2.163989
      3         11           0        3.209286   -0.623322    0.714008
      4         11           0        0.959335    1.310928    1.161826
      5         11           0       -0.729309   -0.944624    2.197815
      6         11           0       -1.938899   -1.885509   -0.380145
      7         11           0       -4.221938    0.013393   -0.793379
 ---------------------------------------------------------------------

 SCF Done:  E(UB3LYP) =  -1136.09810227     A.U. after   24 cycles

 The electronic state is 2-A.
 Alpha  occ. eigenvalues --  -38.45424 -38.45052 -38.44314 -38.44297 -38.43968
 Alpha  occ. eigenvalues --  -38.43886 -38.43041  -2.21229  -2.20960  -2.20187
 Alpha  occ. eigenvalues --   -2.20175  -2.19780  -2.19705  -2.19006  -1.14916
 Alpha  occ. eigenvalues --   -1.14863  -1.14855  -1.14649  -1.14632  -1.14542
 Alpha  occ. eigenvalues --   -1.13888  -1.13881  -1.13879  -1.13834  -1.13809
 Alpha  occ. eigenvalues --   -1.13802  -1.13421  -1.13420  -1.13413  -1.13402
 Alpha  occ. eigenvalues --   -1.13336  -1.13327  -1.12700  -1.12674  -1.12627
 Alpha  occ. eigenvalues --   -0.17483  -0.13891  -0.11777  -0.11525
 Alpha virt. eigenvalues --   -0.06854  -0.04896  -0.04366  -0.03817  -0.03244
 Alpha virt. eigenvalues --   -0.02608  -0.02112  -0.00681  -0.00602  -0.00486
 Alpha virt. eigenvalues --   -0.00391  -0.00193   0.00238   0.00548   0.00619

  Beta  occ. eigenvalues --  -38.45378 -38.44961 -38.44315 -38.44300 -38.43943
  Beta  occ. eigenvalues --  -38.43830 -38.43036  -2.21143  -2.20792  -2.20196
  Beta  occ. eigenvalues --   -2.20183  -2.19735  -2.19601  -2.19005  -1.14859
  Beta  occ. eigenvalues --   -1.14803  -1.14796  -1.14541  -1.14520  -1.14424
  Beta  occ. eigenvalues --   -1.13897  -1.13876  -1.13853  -1.13837  -1.13819
  Beta  occ. eigenvalues --   -1.13796  -1.13390  -1.13387  -1.13385  -1.13335
  Beta  occ. eigenvalues --   -1.13265  -1.13256  -1.12691  -1.12638  -1.12623
  Beta  occ. eigenvalues --   -0.16822  -0.13546  -0.11261
  Beta virt. eigenvalues --   -0.08200  -0.06404  -0.04587  -0.04024  -0.03404
  Beta virt. eigenvalues --   -0.02964  -0.02276  -0.01803  -0.00530  -0.00323
  Beta virt. eigenvalues --   -0.00255  -0.00237  -0.00013   0.00311   0.00659

 Mulliken charges and spin densities:
               1          2
     1  Na   0.397989   0.174224
     2  Na  -0.119366   0.111153
     3  Na  -0.129401   0.016402
     4  Na  -0.055671   0.204172
     5  Na   0.427898   0.164366
     6  Na  -0.597145   0.155497
     7  Na   0.075697   0.174186
 Sum of Mulliken charges =  -0.00000   1.00000

 Dipole moment (field-independent basis, Debye):
    X=             -1.4573    Y=             -0.2830    Z=             -0.3267  Tot=              1.5201
 Quadrupole moment (field-independent basis, Debye-Ang):
   XX=            -62.9046   YY=            -73.6010   ZZ=            -64.3452
   XY=             -2.5841   XZ=              3.5520   YZ=             -4.1967

 Normal termination of Gaussian 16 at Mon Nov 13 14:48:07 2023.
