 Gaussian 16, Revision B.01,
 Gaussian 16:  ES64L-G16RevB.01 20-Dec-2017

 -------------------------
 #P B3LYP/6-311+g(d) force
 -------------------------

 ------------------------------
 Gaussian input prepared by ASE
 ------------------------------
 Symbolic Z-matrix:
 Charge =  0 Multiplicity = 2

                         Standard orientation:
 ---------------------------------------------------------------------
 Center     Atomic      Atomic             Coordinates (Angstroms)
 Number     Number       Type             X           Y           Z
 ---------------------------------------------------------------------
      1         11           0        0.000249    0.090509    1.558218
      2         11           0       -2.545253    0.636201    0.001073
      3         11           0        0.022350    2.699749   -0.000804
      4         11           0        0.000181    0.092757   -1.557328
      5         11           0       -1.462832   -2.047278   -0.001118
      6         11           0        1.431923   -2.070977   -0.000990
      7         11           0        2.553381    0.599037    0.000950
 ---------------------------------------------------------------------

 SCF Done:  E(UB3LYP) =  -1136.10652410     A.U. after   17 cycles

 The electronic state is 2-A.
 Alpha  occ. eigenvalues --  -38.43554 -38.43554 -38.43451 -38.43447 -38.43400
 Alpha  occ. eigenvalues --  -38.43108 -38.43108  -2.19599  -2.19598  -2.19551
 Alpha  occ. eigenvalues --   -2.19519  -2.19394  -2.19363  -2.19355  -1.13538
 Alpha  occ. eigenvalues --   -1.13503  -1.13464  -1.13343  -1.13296  -1.13286
 Alpha  occ. eigenvalues --   -1.13258  -1.13226  -1.13142  -1.13134  -1.13131
 Alpha  occ. eigenvalues --   -1.13103  -1.13087  -1.13026  -1.13009  -1.12969
 Alpha  occ. eigenvalues --   -1.12950  -1.12923  -1.12914  -1.12893  -1.12882
 Alpha  occ. eigenvalues --   -0.21004  -0.13578  -0.13377  -0.11249
 Alpha virt. eigenvalues --   -0.05009  -0.04820  -0.04540  -0.03149  -0.03018
 Alpha virt. eigenvalues --   -0.02125  -0.01040  -0.00977   0.00051   0.00345
 Alpha virt. eigenvalues --    0.00408   0.00504   0.01009   0.01023   0.01093

  Beta  occ. eigenvalues --  -38.43544 -38.43543 -38.43438 -38.43434 -38.43392
  Beta  occ. eigenvalues --  -38.43025 -38.43025  -2.19585  -2.19583  -2.19535
  Beta  occ. eigenvalues --   -2.19502  -2.19379  -2.19220  -2.19206  -1.13517
  Beta  occ. eigenvalues --   -1.13487  -1.13458  -1.13320  -1.13279  -1.13230
  Beta  occ. eigenvalues --   -1.13198  -1.13154  -1.13126  -1.13124  -1.13092
  Beta  occ. eigenvalues --   -1.13068  -1.13032  -1.13005  -1.12967  -1.12959
  Beta  occ. eigenvalues --   -1.12853  -1.12822  -1.12820  -1.12799  -1.12796
  Beta  occ. eigenvalues --   -0.20231  -0.13223  -0.13034
  Beta virt. eigenvalues --   -0.07135  -0.05040  -0.04820  -0.04523  -0.02228
  Beta virt. eigenvalues --   -0.02123  -0.01077  -0.00973  -0.00919   0.00167
  Beta virt. eigenvalues --    0.00345   0.00397   0.00457   0.01032   0.01043

 Mulliken charges and spin densities:
               1          2
     1  Na  -0.871286   0.514381
     2  Na   0.348865  -0.026549
     3  Na   0.264738  -0.081608
     4  Na  -0.872640   0.513517
     5  Na   0.392117   0.053629
     6  Na   0.390019   0.052690
     7  Na   0.348188  -0.026060
 Sum of Mulliken charges =  -0.00000   1.00000

 Dipole moment (field-independent basis, Debye):
    X=              0.0031    Y=              0.3211    Z=              0.0008  Tot=              0.3211
 Quadrupole moment (field-independent basis, Debye-Ang):
   XX=            -60.2295   YY=            -61.0676   ZZ=            -73.3775
   XY=             -0.0066   XZ=             -0.0002   YZ=              0.0051

 Normal termination of Gaussian 16 at Mon Nov 13 20:16:45 2023.
