 Gaussian 16, Revision B.01,
 Gaussian 16:  ES64L-G16RevB.01 20-Dec-2017

 -------------------------
 #P B3LYP/6-311+g(d) force
 -------------------------

 ------------------------------
 Gaussian input prepared by ASE
 ------------------------------
 Symbolic Z-matrix:
 Charge =  0 Multiplicity = 2

                         Standard orientation:
 ---------------------------------------------------------------------
 Center     Atomic      Atomic             Coordinates (Angstroms)
 Number     Number       Type             X           Y           Z
 ---------------------------------------------------------------------
      1         11           0        0.218286   -0.877716   -1.357503
      2         11           0        0.510492   -0.163563    1.540832
      3         11           0        2.916961   -0.958788   -0.057893
      4         11           0        1.579764    1.674045   -0.564530
      5         11           0       -1.080335    2.247139    0.704357
      6         11           0       -2.555585    0.205870   -0.941737
      7         11           0       -1.589582   -2.126988    0.676474
 ---------------------------------------------------------------------

 SCF Done:  E(UB3LYP) =  -1136.10611531     A.U. after   21 cycles

 The electronic state is 2-A.
 Alpha  occ. eigenvalues --  -38.44195 -38.44135 -38.43541 -38.43497 -38.43406
 Alpha  occ. eigenvalues --  -38.43330 -38.42945  -2.20175  -2.20129  -2.19618
 Alpha  occ. eigenvalues --   -2.19570  -2.19531  -2.19513  -2.18937  -1.13954
 Alpha  occ. eigenvalues --   -1.13868  -1.13840  -1.13808  -1.13788  -1.13780
 Alpha  occ. eigenvalues --   -1.13485  -1.13431  -1.13319  -1.13260  -1.13211
 Alpha  occ. eigenvalues --   -1.13196  -1.13177  -1.13131  -1.13117  -1.13107
 Alpha  occ. eigenvalues --   -1.13077  -1.13028  -1.12607  -1.12577  -1.12553
 Alpha  occ. eigenvalues --   -0.20504  -0.14057  -0.12424  -0.11487
 Alpha virt. eigenvalues --   -0.05627  -0.04688  -0.04004  -0.03618  -0.02826
 Alpha virt. eigenvalues --   -0.02435  -0.01539  -0.00708  -0.00152   0.00346
 Alpha virt. eigenvalues --    0.00529   0.00563   0.00921   0.00945   0.01035

  Beta  occ. eigenvalues --  -38.44189 -38.44110 -38.43522 -38.43478 -38.43324
  Beta  occ. eigenvalues --  -38.43274 -38.42931  -2.20168  -2.20084  -2.19545
  Beta  occ. eigenvalues --   -2.19498  -2.19465  -2.19420  -2.18916  -1.13946
  Beta  occ. eigenvalues --   -1.13836  -1.13811  -1.13796  -1.13756  -1.13733
  Beta  occ. eigenvalues --   -1.13432  -1.13370  -1.13245  -1.13192  -1.13163
  Beta  occ. eigenvalues --   -1.13148  -1.13127  -1.13104  -1.13050  -1.13024
  Beta  occ. eigenvalues --   -1.13000  -1.12964  -1.12586  -1.12564  -1.12516
  Beta  occ. eigenvalues --   -0.19738  -0.13763  -0.12157
  Beta virt. eigenvalues --   -0.07360  -0.05554  -0.04670  -0.03849  -0.02921
  Beta virt. eigenvalues --   -0.02086  -0.01481  -0.01315  -0.00644   0.00061
  Beta virt. eigenvalues --    0.00389   0.00509   0.00577   0.00949   0.00995

 Mulliken charges and spin densities:
               1          2
     1  Na  -0.321780   0.159706
     2  Na  -0.322254   0.205961
     3  Na   0.802692   0.141000
     4  Na  -0.235207   0.207232
     5  Na   0.182995   0.013978
     6  Na   0.024895   0.120670
     7  Na  -0.131341   0.151454
 Sum of Mulliken charges =  -0.00000   1.00000

 Dipole moment (field-independent basis, Debye):
    X=              0.1638    Y=             -0.2011    Z=             -0.0505  Tot=              0.2642
 Quadrupole moment (field-independent basis, Debye-Ang):
   XX=            -55.1851   YY=            -68.6457   ZZ=            -70.8192
   XY=             -0.9794   XZ=             -0.1532   YZ=             -1.5708

 Normal termination of Gaussian 16 at Mon Nov 13 17:07:20 2023.
