 Gaussian 16, Revision B.01,
 Gaussian 16:  ES64L-G16RevB.01 20-Dec-2017

 -------------------------
 #P B3LYP/6-311+g(d) force
 -------------------------

 ------------------------------
 Gaussian input prepared by ASE
 ------------------------------
 Symbolic Z-matrix:
 Charge =  0 Multiplicity = 2

                         Standard orientation:
 ---------------------------------------------------------------------
 Center     Atomic      Atomic             Coordinates (Angstroms)
 Number     Number       Type             X           Y           Z
 ---------------------------------------------------------------------
      1         11           0       -2.203828   -0.339473   -0.305924
      2         11           0       -0.004269   -1.905415    1.289589
      3         11           0        3.670442    0.564158   -0.057494
      4         11           0        0.808325    0.452095   -0.609524
      5         11           0       -0.275466   -1.935300   -1.445758
      6         11           0       -0.661517    0.735184    1.699936
      7         11           0       -1.333687    2.428750   -0.570826
 ---------------------------------------------------------------------

 SCF Done:  E(UB3LYP) =  -1136.07245076     A.U. after   23 cycles

 The electronic state is 2-A.
 Alpha  occ. eigenvalues --  -38.44615 -38.44418 -38.44255 -38.44044 -38.43868
 Alpha  occ. eigenvalues --  -38.43650 -38.42967  -2.20852  -2.20539  -2.20171
 Alpha  occ. eigenvalues --   -2.20108  -2.20055  -2.19677  -2.19308  -1.14758
 Alpha  occ. eigenvalues --   -1.14578  -1.14490  -1.14468  -1.14266  -1.14204
 Alpha  occ. eigenvalues --   -1.13833  -1.13803  -1.13778  -1.13749  -1.13718
 Alpha  occ. eigenvalues --   -1.13693  -1.13685  -1.13675  -1.13650  -1.13409
 Alpha  occ. eigenvalues --   -1.13292  -1.13261  -1.12991  -1.12932  -1.12843
 Alpha  occ. eigenvalues --   -0.21054  -0.13113  -0.12558  -0.12365
 Alpha virt. eigenvalues --   -0.05771  -0.04600  -0.03526  -0.03252  -0.03047
 Alpha virt. eigenvalues --   -0.02830  -0.01367  -0.00766  -0.00283   0.00272
 Alpha virt. eigenvalues --    0.00519   0.00672   0.00828   0.00910   0.01094

  Beta  occ. eigenvalues --  -38.44529 -38.44365 -38.44265 -38.43991 -38.43837
  Beta  occ. eigenvalues --  -38.43637 -38.42932  -2.20699  -2.20445  -2.20080
  Beta  occ. eigenvalues --   -2.20075  -2.20061  -2.19656  -2.19252  -1.14669
  Beta  occ. eigenvalues --   -1.14448  -1.14415  -1.14379  -1.14180  -1.14134
  Beta  occ. eigenvalues --   -1.13807  -1.13757  -1.13752  -1.13704  -1.13699
  Beta  occ. eigenvalues --   -1.13681  -1.13629  -1.13611  -1.13592  -1.13391
  Beta  occ. eigenvalues --   -1.13263  -1.13239  -1.12940  -1.12871  -1.12790
  Beta  occ. eigenvalues --   -0.20128  -0.12941  -0.12401
  Beta virt. eigenvalues --   -0.07842  -0.05656  -0.04496  -0.03214  -0.02825
  Beta virt. eigenvalues --   -0.02216  -0.01889  -0.01235  -0.00722  -0.00021
  Beta virt. eigenvalues --    0.00325   0.00509   0.00697   0.00884   0.01031

 Mulliken charges and spin densities:
               1          2
     1  Na   0.340962   0.348741
     2  Na  -0.077872   0.011939
     3  Na  -0.417785  -0.012543
     4  Na  -1.171794   0.171774
     5  Na   0.603284   0.121474
     6  Na  -0.263108   0.424392
     7  Na   0.986314  -0.065776
 Sum of Mulliken charges =  -0.00000   1.00000

 Dipole moment (field-independent basis, Debye):
    X=              0.1158    Y=             -0.0907    Z=              0.0354  Tot=              0.1513
 Quadrupole moment (field-independent basis, Debye-Ang):
   XX=            -61.2161   YY=            -65.8798   ZZ=            -66.9244
   XY=             -1.5456   XZ=              2.0549   YZ=             -0.7396

 Normal termination of Gaussian 16 at Mon Nov 13 20:22:10 2023.
