 Gaussian 16, Revision B.01,
 Gaussian 16:  ES64L-G16RevB.01 20-Dec-2017

 -------------------------
 #P B3LYP/6-311+g(d) force
 -------------------------

 ------------------------------
 Gaussian input prepared by ASE
 ------------------------------
 Symbolic Z-matrix:
 Charge =  0 Multiplicity = 2

                         Standard orientation:
 ---------------------------------------------------------------------
 Center     Atomic      Atomic             Coordinates (Angstroms)
 Number     Number       Type             X           Y           Z
 ---------------------------------------------------------------------
      1         11           0       -0.612182   -0.199124   -1.444171
      2         11           0        1.280323    1.316278    0.327726
      3         11           0        3.750298   -0.245756   -0.349736
      4         11           0        1.222444   -1.671143    0.423014
      5         11           0       -1.474559    2.379685   -0.164229
      6         11           0       -1.096858   -0.092879    1.497872
      7         11           0       -3.069466   -1.487062   -0.290475
 ---------------------------------------------------------------------

 SCF Done:  E(UB3LYP) =  -1136.09673012     A.U. after   23 cycles

 The electronic state is 2-A.
 Alpha  occ. eigenvalues --  -38.45219 -38.44248 -38.43853 -38.43768 -38.43141
 Alpha  occ. eigenvalues --  -38.42891 -38.42882  -2.21103  -2.20143  -2.20026
 Alpha  occ. eigenvalues --   -2.19825  -2.19348  -2.19057  -2.18890  -1.14803
 Alpha  occ. eigenvalues --   -1.14773  -1.14719  -1.13914  -1.13873  -1.13833
 Alpha  occ. eigenvalues --   -1.13745  -1.13697  -1.13583  -1.13568  -1.13459
 Alpha  occ. eigenvalues --   -1.13409  -1.13097  -1.12998  -1.12935  -1.12772
 Alpha  occ. eigenvalues --   -1.12719  -1.12673  -1.12544  -1.12520  -1.12459
 Alpha  occ. eigenvalues --   -0.20343  -0.14468  -0.11918  -0.10899
 Alpha virt. eigenvalues --   -0.06996  -0.04711  -0.03679  -0.03307  -0.02505
 Alpha virt. eigenvalues --   -0.02163  -0.01876  -0.01072  -0.00376   0.00069
 Alpha virt. eigenvalues --    0.00282   0.00395   0.00712   0.00848   0.00886

  Beta  occ. eigenvalues --  -38.45212 -38.44237 -38.43797 -38.43739 -38.43063
  Beta  occ. eigenvalues --  -38.42882 -38.42859  -2.21090  -2.20126  -2.19926
  Beta  occ. eigenvalues --   -2.19779  -2.19210  -2.19023  -2.18877  -1.14797
  Beta  occ. eigenvalues --   -1.14765  -1.14702  -1.13892  -1.13815  -1.13792
  Beta  occ. eigenvalues --   -1.13728  -1.13636  -1.13520  -1.13506  -1.13387
  Beta  occ. eigenvalues --   -1.13378  -1.13013  -1.12892  -1.12843  -1.12742
  Beta  occ. eigenvalues --   -1.12705  -1.12580  -1.12529  -1.12485  -1.12444
  Beta  occ. eigenvalues --   -0.19551  -0.14224  -0.11647
  Beta virt. eigenvalues --   -0.06900  -0.06715  -0.04668  -0.03443  -0.02858
  Beta virt. eigenvalues --   -0.02368  -0.01493  -0.01052  -0.00915  -0.00087
  Beta virt. eigenvalues --    0.00130   0.00303   0.00436   0.00873   0.00876

 Mulliken charges and spin densities:
               1          2
     1  Na  -0.786446   0.422767
     2  Na  -0.157319   0.199733
     3  Na   0.401946  -0.004608
     4  Na   0.349307   0.223632
     5  Na   0.072030   0.121918
     6  Na   0.004418  -0.006113
     7  Na   0.116062   0.042671
 Sum of Mulliken charges =  -0.00000   1.00000

 Dipole moment (field-independent basis, Debye):
    X=              0.5170    Y=             -0.1083    Z=              0.0005  Tot=              0.5282
 Quadrupole moment (field-independent basis, Debye-Ang):
   XX=            -46.2979   YY=            -71.4253   ZZ=            -73.3418
   XY=             -0.7661   XZ=             -1.5323   YZ=              0.1415

 Normal termination of Gaussian 16 at Mon Nov 13 19:17:39 2023.
