 Gaussian 16, Revision B.01,
 Gaussian 16:  ES64L-G16RevB.01 20-Dec-2017

 -------------------------
 #P B3LYP/6-311+g(d) force
 -------------------------

 ------------------------------
 Gaussian input prepared by ASE
 ------------------------------
 Symbolic Z-matrix:
 Charge =  0 Multiplicity = 2

                         Standard orientation:
 ---------------------------------------------------------------------
 Center     Atomic      Atomic             Coordinates (Angstroms)
 Number     Number       Type             X           Y           Z
 ---------------------------------------------------------------------
      1         11           0       -0.914345   -1.506338   -0.155302
      2         11           0        2.153770   -1.469177    0.191539
      3         11           0        0.408210    0.101406    1.978277
      4         11           0        0.820388   -0.162005   -1.754118
      5         11           0        1.978901    1.603654   -0.049866
      6         11           0       -1.066776    1.533226   -0.231681
      7         11           0       -3.380149   -0.100766    0.021152
 ---------------------------------------------------------------------

 SCF Done:  E(UB3LYP) =  -1136.07759900     A.U. after   24 cycles

 The electronic state is 2-A.
 Alpha  occ. eigenvalues --  -38.45297 -38.44845 -38.44528 -38.43628 -38.43401
 Alpha  occ. eigenvalues --  -38.43089 -38.42906  -2.21223  -2.21118  -2.20654
 Alpha  occ. eigenvalues --   -2.19742  -2.19517  -2.19301  -2.19079  -1.14973
 Alpha  occ. eigenvalues --   -1.14910  -1.14900  -1.14863  -1.14822  -1.14750
 Alpha  occ. eigenvalues --   -1.14388  -1.14308  -1.14262  -1.13441  -1.13390
 Alpha  occ. eigenvalues --   -1.13347  -1.13220  -1.13159  -1.13092  -1.13046
 Alpha  occ. eigenvalues --   -1.12953  -1.12888  -1.12762  -1.12722  -1.12654
 Alpha  occ. eigenvalues --   -0.21390  -0.14504  -0.12349  -0.11828
 Alpha virt. eigenvalues --   -0.06459  -0.04138  -0.04001  -0.03580  -0.02678
 Alpha virt. eigenvalues --   -0.02578  -0.01855  -0.00493  -0.00193   0.00213
 Alpha virt. eigenvalues --    0.00534   0.00680   0.00818   0.00961   0.01064

  Beta  occ. eigenvalues --  -38.45305 -38.44752 -38.44425 -38.43611 -38.43384
  Beta  occ. eigenvalues --  -38.43068 -38.42887  -2.21239  -2.20950  -2.20467
  Beta  occ. eigenvalues --   -2.19719  -2.19494  -2.19271  -2.19053  -1.14983
  Beta  occ. eigenvalues --   -1.14921  -1.14820  -1.14808  -1.14737  -1.14624
  Beta  occ. eigenvalues --   -1.14273  -1.14170  -1.14125  -1.13427  -1.13339
  Beta  occ. eigenvalues --   -1.13312  -1.13201  -1.13102  -1.13073  -1.13030
  Beta  occ. eigenvalues --   -1.12893  -1.12851  -1.12750  -1.12652  -1.12636
  Beta  occ. eigenvalues --   -0.20533  -0.14244  -0.11484
  Beta virt. eigenvalues --   -0.08094  -0.06326  -0.04160  -0.03204  -0.03128
  Beta virt. eigenvalues --   -0.01905  -0.01821  -0.01707  -0.00459   0.00002
  Beta virt. eigenvalues --    0.00252   0.00558   0.00656   0.00991   0.01061

 Mulliken charges and spin densities:
               1          2
     1  Na  -0.055070   0.155595
     2  Na   0.254477   0.024687
     3  Na  -0.145312   0.534819
     4  Na  -0.035670   0.364673
     5  Na   0.329607  -0.000664
     6  Na  -0.186497   0.076107
     7  Na  -0.161536  -0.155217
 Sum of Mulliken charges =  -0.00000   1.00000

 Dipole moment (field-independent basis, Debye):
    X=             -0.6836    Y=              0.0807    Z=              0.4327  Tot=              0.8131
 Quadrupole moment (field-independent basis, Debye-Ang):
   XX=            -51.1541   YY=            -76.8465   ZZ=            -67.4148
   XY=              0.0588   XZ=              0.1131   YZ=             -0.8745

 Normal termination of Gaussian 16 at Mon Nov 13 16:14:09 2023.
