 Gaussian 16, Revision B.01,
 Gaussian 16:  ES64L-G16RevB.01 20-Dec-2017

 -------------------------
 #P B3LYP/6-311+g(d) force
 -------------------------

 ------------------------------
 Gaussian input prepared by ASE
 ------------------------------
 Symbolic Z-matrix:
 Charge =  0 Multiplicity = 2

                         Standard orientation:
 ---------------------------------------------------------------------
 Center     Atomic      Atomic             Coordinates (Angstroms)
 Number     Number       Type             X           Y           Z
 ---------------------------------------------------------------------
      1         11           0       -0.380824   -0.954350    1.825292
      2         11           0        0.583654   -1.194022   -0.780738
      3         11           0        3.330785   -0.445787   -0.224019
      4         11           0        1.235624    1.405458    0.558725
      5         11           0       -1.519186    1.389611    0.860446
      6         11           0       -0.787051    1.013094   -1.791603
      7         11           0       -2.463002   -1.214003   -0.448103
 ---------------------------------------------------------------------

 SCF Done:  E(UB3LYP) =  -1136.08141436     A.U. after   24 cycles

 The electronic state is 2-A.
 Alpha  occ. eigenvalues --  -38.44843 -38.43988 -38.43881 -38.43786 -38.43745
 Alpha  occ. eigenvalues --  -38.43617 -38.43189  -2.20756  -2.20136  -2.20082
 Alpha  occ. eigenvalues --   -2.19928  -2.19870  -2.19783  -2.19376  -1.14506
 Alpha  occ. eigenvalues --   -1.14448  -1.14346  -1.14148  -1.13997  -1.13945
 Alpha  occ. eigenvalues --   -1.13864  -1.13827  -1.13694  -1.13589  -1.13547
 Alpha  occ. eigenvalues --   -1.13484  -1.13449  -1.13413  -1.13398  -1.13374
 Alpha  occ. eigenvalues --   -1.13348  -1.13336  -1.13060  -1.12997  -1.12923
 Alpha  occ. eigenvalues --   -0.21311  -0.14179  -0.12949  -0.11498
 Alpha virt. eigenvalues --   -0.06162  -0.04229  -0.03765  -0.03593  -0.02828
 Alpha virt. eigenvalues --   -0.02641  -0.01758  -0.00539  -0.00230   0.00253
 Alpha virt. eigenvalues --    0.00572   0.00669   0.00862   0.01025   0.01063

  Beta  occ. eigenvalues --  -38.44843 -38.43919 -38.43833 -38.43727 -38.43724
  Beta  occ. eigenvalues --  -38.43572 -38.43157  -2.20757  -2.20037  -2.19981
  Beta  occ. eigenvalues --   -2.19832  -2.19783  -2.19749  -2.19324  -1.14505
  Beta  occ. eigenvalues --   -1.14444  -1.14343  -1.14076  -1.13908  -1.13870
  Beta  occ. eigenvalues --   -1.13791  -1.13758  -1.13609  -1.13523  -1.13472
  Beta  occ. eigenvalues --   -1.13416  -1.13391  -1.13378  -1.13337  -1.13317
  Beta  occ. eigenvalues --   -1.13300  -1.13254  -1.13023  -1.12932  -1.12877
  Beta  occ. eigenvalues --   -0.20405  -0.13942  -0.11359
  Beta virt. eigenvalues --   -0.08376  -0.06041  -0.03865  -0.03233  -0.03172
  Beta virt. eigenvalues --   -0.02228  -0.01787  -0.01671  -0.00355  -0.00115
  Beta virt. eigenvalues --    0.00290   0.00611   0.00733   0.00993   0.01045

 Mulliken charges and spin densities:
               1          2
     1  Na   0.214348   0.349253
     2  Na  -0.432814   0.278377
     3  Na   0.111780  -0.064319
     4  Na  -0.441079   0.016634
     5  Na   0.088704   0.135492
     6  Na   0.211218   0.392710
     7  Na   0.247842  -0.108148
 Sum of Mulliken charges =  -0.00000   1.00000

 Dipole moment (field-independent basis, Debye):
    X=              0.3951    Y=             -0.1516    Z=             -0.1617  Tot=              0.4530
 Quadrupole moment (field-independent basis, Debye-Ang):
   XX=            -52.6865   YY=            -77.3731   ZZ=            -65.0122
   XY=              0.1493   XZ=              0.5115   YZ=              3.0604

 Normal termination of Gaussian 16 at Mon Nov 13 19:31:53 2023.
