 Gaussian 16, Revision B.01,
 Gaussian 16:  ES64L-G16RevB.01 20-Dec-2017

 -------------------------
 #P B3LYP/6-311+g(d) force
 -------------------------

 ------------------------------
 Gaussian input prepared by ASE
 ------------------------------
 Symbolic Z-matrix:
 Charge =  0 Multiplicity = 2

                         Standard orientation:
 ---------------------------------------------------------------------
 Center     Atomic      Atomic             Coordinates (Angstroms)
 Number     Number       Type             X           Y           Z
 ---------------------------------------------------------------------
      1         11           0       -0.224917   -0.313120    0.462544
      2         11           0        2.576407   -0.601393    1.505248
      3         11           0        1.914517   -1.502629   -1.277404
      4         11           0        1.966584    1.423085   -0.623071
      5         11           0       -0.748456    2.585821   -0.110063
      6         11           0       -3.039885    0.668351    0.136083
      7         11           0       -2.444250   -2.260114   -0.093336
 ---------------------------------------------------------------------

 SCF Done:  E(UB3LYP) =  -1136.09904517     A.U. after   21 cycles

 The electronic state is 2-A.
 Alpha  occ. eigenvalues --  -38.44678 -38.44141 -38.44009 -38.44007 -38.43927
 Alpha  occ. eigenvalues --  -38.43197 -38.43075  -2.20644  -2.20082  -2.20023
 Alpha  occ. eigenvalues --   -2.20003  -2.19936  -2.19484  -2.19040  -1.14380
 Alpha  occ. eigenvalues --   -1.14327  -1.14271  -1.13952  -1.13806  -1.13777
 Alpha  occ. eigenvalues --   -1.13737  -1.13718  -1.13670  -1.13664  -1.13643
 Alpha  occ. eigenvalues --   -1.13607  -1.13562  -1.13514  -1.13469  -1.13167
 Alpha  occ. eigenvalues --   -1.13141  -1.13116  -1.12709  -1.12706  -1.12639
 Alpha  occ. eigenvalues --   -0.19671  -0.14839  -0.12377  -0.10332
 Alpha virt. eigenvalues --   -0.06177  -0.05892  -0.04256  -0.03498  -0.02159
 Alpha virt. eigenvalues --   -0.02071  -0.01547  -0.01019  -0.00528  -0.00141
 Alpha virt. eigenvalues --    0.00069   0.00357   0.00742   0.00827   0.00876

  Beta  occ. eigenvalues --  -38.44678 -38.44144 -38.43977 -38.43956 -38.43855
  Beta  occ. eigenvalues --  -38.43166 -38.43073  -2.20644  -2.20032  -2.20029
  Beta  occ. eigenvalues --   -2.19913  -2.19804  -2.19438  -2.19038  -1.14379
  Beta  occ. eigenvalues --   -1.14335  -1.14263  -1.13913  -1.13779  -1.13738
  Beta  occ. eigenvalues --   -1.13681  -1.13670  -1.13655  -1.13640  -1.13595
  Beta  occ. eigenvalues --   -1.13512  -1.13493  -1.13429  -1.13378  -1.13142
  Beta  occ. eigenvalues --   -1.13108  -1.13019  -1.12708  -1.12704  -1.12621
  Beta  occ. eigenvalues --   -0.18981  -0.14633  -0.12218
  Beta virt. eigenvalues --   -0.06274  -0.05957  -0.05777  -0.04118  -0.02971
  Beta virt. eigenvalues --   -0.01954  -0.01585  -0.00939  -0.00791  -0.00438
  Beta virt. eigenvalues --    0.00128   0.00209   0.00446   0.00773   0.00898

 Mulliken charges and spin densities:
               1          2
     1  Na  -2.406182   0.771752
     2  Na   0.462143  -0.002972
     3  Na   0.087678   0.149976
     4  Na   0.576260   0.485413
     5  Na   0.495374  -0.025163
     6  Na   0.195757  -0.233318
     7  Na   0.588971  -0.145688
 Sum of Mulliken charges =  -0.00000   1.00000

 Dipole moment (field-independent basis, Debye):
    X=             -0.5180    Y=             -0.3371    Z=             -0.2952  Tot=              0.6849
 Quadrupole moment (field-independent basis, Debye-Ang):
   XX=            -52.7646   YY=            -64.9884   ZZ=            -75.7574
   XY=             -0.2730   XZ=             -0.0977   YZ=              0.7324

 Normal termination of Gaussian 16 at Mon Nov 13 15:46:11 2023.
