 Gaussian 16, Revision B.01,
 Gaussian 16:  ES64L-G16RevB.01 20-Dec-2017

 -------------------------
 #P B3LYP/6-311+g(d) force
 -------------------------

 ------------------------------
 Gaussian input prepared by ASE
 ------------------------------
 Symbolic Z-matrix:
 Charge =  0 Multiplicity = 2

                         Standard orientation:
 ---------------------------------------------------------------------
 Center     Atomic      Atomic             Coordinates (Angstroms)
 Number     Number       Type             X           Y           Z
 ---------------------------------------------------------------------
      1         11           0       -1.138477   -0.639235    1.623080
      2         11           0       -0.080346   -2.158507   -0.732877
      3         11           0       -2.897769   -1.132209   -0.751459
      4         11           0       -2.349883    1.675325    0.145867
      5         11           0        0.412564    2.530019   -0.666541
      6         11           0        1.569581    0.018558    0.508976
      7         11           0        4.484330   -0.293950   -0.127046
 ---------------------------------------------------------------------

 SCF Done:  E(UB3LYP) =  -1136.09668948     A.U. after   25 cycles

 The electronic state is 2-A.
 Alpha  occ. eigenvalues --  -38.44767 -38.44532 -38.44455 -38.44358 -38.43813
 Alpha  occ. eigenvalues --  -38.43616 -38.42964  -2.20641  -2.20590  -2.20415
 Alpha  occ. eigenvalues --   -2.20229  -2.19817  -2.19600  -2.19054  -1.14401
 Alpha  occ. eigenvalues --   -1.14354  -1.14276  -1.14265  -1.14210  -1.14205
 Alpha  occ. eigenvalues --   -1.14102  -1.14085  -1.14016  -1.13939  -1.13909
 Alpha  occ. eigenvalues --   -1.13865  -1.13540  -1.13452  -1.13429  -1.13272
 Alpha  occ. eigenvalues --   -1.13231  -1.13188  -1.12766  -1.12707  -1.12673
 Alpha  occ. eigenvalues --   -0.19550  -0.14135  -0.12499  -0.10640
 Alpha virt. eigenvalues --   -0.07562  -0.04657  -0.04201  -0.03533  -0.02952
 Alpha virt. eigenvalues --   -0.02542  -0.01625  -0.01026  -0.00567  -0.00137
 Alpha virt. eigenvalues --   -0.00105   0.00032   0.00388   0.00807   0.00840

  Beta  occ. eigenvalues --  -38.44694 -38.44475 -38.44451 -38.44364 -38.43761
  Beta  occ. eigenvalues --  -38.43601 -38.42933  -2.20543  -2.20453  -2.20411
  Beta  occ. eigenvalues --   -2.20240  -2.19721  -2.19577  -2.19010  -1.14344
  Beta  occ. eigenvalues --   -1.14263  -1.14197  -1.14181  -1.14117  -1.14111
  Beta  occ. eigenvalues --   -1.14090  -1.14075  -1.13992  -1.13946  -1.13919
  Beta  occ. eigenvalues --   -1.13866  -1.13484  -1.13389  -1.13357  -1.13255
  Beta  occ. eigenvalues --   -1.13215  -1.13137  -1.12720  -1.12659  -1.12615
  Beta  occ. eigenvalues --   -0.18946  -0.13500  -0.12339
  Beta virt. eigenvalues --   -0.07243  -0.06907  -0.04583  -0.04090  -0.02887
  Beta virt. eigenvalues --   -0.02667  -0.02224  -0.01115  -0.00724  -0.00167
  Beta virt. eigenvalues --   -0.00026   0.00079   0.00129   0.00598   0.00853

 Mulliken charges and spin densities:
               1          2
     1  Na  -0.280773   0.207412
     2  Na   0.657703  -0.157168
     3  Na   0.073706   0.423459
     4  Na   1.132094   0.125092
     5  Na  -0.500528  -0.145056
     6  Na  -0.858853   0.385179
     7  Na  -0.223349   0.161082
 Sum of Mulliken charges =  -0.00000   1.00000

 Dipole moment (field-independent basis, Debye):
    X=              0.1308    Y=             -0.1775    Z=              0.0896  Tot=              0.2380
 Quadrupole moment (field-independent basis, Debye-Ang):
   XX=            -64.0877   YY=            -70.4855   ZZ=            -66.4623
   XY=              0.4276   XZ=             -3.1817   YZ=              0.1921

 Normal termination of Gaussian 16 at Mon Nov 13 16:02:25 2023.
