 Gaussian 16, Revision B.01,
 Gaussian 16:  ES64L-G16RevB.01 20-Dec-2017

 -------------------------
 #P B3LYP/6-311+g(d) force
 -------------------------

 ------------------------------
 Gaussian input prepared by ASE
 ------------------------------
 Symbolic Z-matrix:
 Charge =  0 Multiplicity = 2

                         Standard orientation:
 ---------------------------------------------------------------------
 Center     Atomic      Atomic             Coordinates (Angstroms)
 Number     Number       Type             X           Y           Z
 ---------------------------------------------------------------------
      1         11           0       -1.752868    1.393115   -0.911143
      2         11           0       -1.262907    0.479770    1.634049
      3         11           0        0.369493   -0.196799   -1.684174
      4         11           0        2.925226   -0.274740   -0.350303
      5         11           0        0.995069    1.646992    0.588726
      6         11           0        0.704474   -1.396115    1.102461
      7         11           0       -1.978487   -1.652223   -0.379616
 ---------------------------------------------------------------------

 SCF Done:  E(UB3LYP) =  -1136.08096280     A.U. after   23 cycles

 The electronic state is 2-A.
 Alpha  occ. eigenvalues --  -38.44603 -38.44406 -38.44353 -38.43752 -38.43415
 Alpha  occ. eigenvalues --  -38.43135 -38.43003  -2.20837  -2.20603  -2.20434
 Alpha  occ. eigenvalues --   -2.19879  -2.19608  -2.19195  -2.19179  -1.14660
 Alpha  occ. eigenvalues --   -1.14582  -1.14481  -1.14444  -1.14369  -1.14195
 Alpha  occ. eigenvalues --   -1.14142  -1.14058  -1.14018  -1.13533  -1.13513
 Alpha  occ. eigenvalues --   -1.13433  -1.13321  -1.13233  -1.13203  -1.12904
 Alpha  occ. eigenvalues --   -1.12864  -1.12842  -1.12828  -1.12776  -1.12746
 Alpha  occ. eigenvalues --   -0.21559  -0.14233  -0.12928  -0.11951
 Alpha virt. eigenvalues --   -0.05572  -0.04263  -0.03957  -0.03817  -0.02981
 Alpha virt. eigenvalues --   -0.02822  -0.01241  -0.00353  -0.00305   0.00302
 Alpha virt. eigenvalues --    0.00737   0.00922   0.00970   0.01060   0.01081

  Beta  occ. eigenvalues --  -38.44527 -38.44400 -38.44269 -38.43722 -38.43370
  Beta  occ. eigenvalues --  -38.43124 -38.42977  -2.20702  -2.20460  -2.20418
  Beta  occ. eigenvalues --   -2.19829  -2.19532  -2.19163  -2.19155  -1.14567
  Beta  occ. eigenvalues --   -1.14475  -1.14389  -1.14350  -1.14288  -1.14117
  Beta  occ. eigenvalues --   -1.14101  -1.14044  -1.13965  -1.13497  -1.13448
  Beta  occ. eigenvalues --   -1.13392  -1.13269  -1.13169  -1.13128  -1.12876
  Beta  occ. eigenvalues --   -1.12854  -1.12795  -1.12778  -1.12757  -1.12707
  Beta  occ. eigenvalues --   -0.20713  -0.13960  -0.11696
  Beta virt. eigenvalues --   -0.08494  -0.05513  -0.03970  -0.03450  -0.03259
  Beta virt. eigenvalues --   -0.02198  -0.02024  -0.01180  -0.00333  -0.00072
  Beta virt. eigenvalues --    0.00332   0.00804   0.00937   0.01060   0.01110

 Mulliken charges and spin densities:
               1          2
     1  Na   0.081362   0.030101
     2  Na   0.762198   0.269546
     3  Na  -0.064214   0.394094
     4  Na   0.975704   0.002514
     5  Na  -0.864494   0.140721
     6  Na  -0.576986   0.188128
     7  Na  -0.313571  -0.025104
 Sum of Mulliken charges =  -0.00000   1.00000

 Dipole moment (field-independent basis, Debye):
    X=              0.1897    Y=             -0.1576    Z=             -0.2420  Tot=              0.3455
 Quadrupole moment (field-independent basis, Debye-Ang):
   XX=            -57.0059   YY=            -75.0629   ZZ=            -65.0141
   XY=              0.1464   XZ=              0.3094   YZ=              0.0915

 Normal termination of Gaussian 16 at Mon Nov 13 19:31:05 2023.
