 Gaussian 16, Revision B.01,
 Gaussian 16:  ES64L-G16RevB.01 20-Dec-2017

 -------------------------
 #P B3LYP/6-311+g(d) force
 -------------------------

 ------------------------------
 Gaussian input prepared by ASE
 ------------------------------
 Symbolic Z-matrix:
 Charge =  0 Multiplicity = 2

                         Standard orientation:
 ---------------------------------------------------------------------
 Center     Atomic      Atomic             Coordinates (Angstroms)
 Number     Number       Type             X           Y           Z
 ---------------------------------------------------------------------
      1         11           0       -0.265858   -0.573134   -0.666408
      2         11           0        0.902001   -0.607235    2.101576
      3         11           0        2.503510   -1.627309   -0.222396
      4         11           0        2.110195    1.063378   -1.490329
      5         11           0        0.324912    2.004815    0.734392
      6         11           0       -2.496418    1.326734   -0.027573
      7         11           0       -3.078342   -1.587250   -0.429262
 ---------------------------------------------------------------------

 SCF Done:  E(UB3LYP) =  -1136.10041615     A.U. after   23 cycles

 The electronic state is 2-A.
 Alpha  occ. eigenvalues --  -38.44568 -38.44464 -38.44094 -38.43859 -38.43740
 Alpha  occ. eigenvalues --  -38.43195 -38.42445  -2.20578  -2.20466  -2.20067
 Alpha  occ. eigenvalues --   -2.19749  -2.19725  -2.19475  -2.18525  -1.14302
 Alpha  occ. eigenvalues --   -1.14213  -1.14194  -1.14172  -1.14104  -1.14087
 Alpha  occ. eigenvalues --   -1.13834  -1.13764  -1.13698  -1.13486  -1.13433
 Alpha  occ. eigenvalues --   -1.13376  -1.13374  -1.13368  -1.13339  -1.13185
 Alpha  occ. eigenvalues --   -1.13103  -1.13055  -1.12215  -1.12165  -1.12153
 Alpha  occ. eigenvalues --   -0.20073  -0.14319  -0.11932  -0.11715
 Alpha virt. eigenvalues --   -0.05833  -0.05178  -0.03762  -0.03361  -0.03013
 Alpha virt. eigenvalues --   -0.02563  -0.01763  -0.00836  -0.00337   0.00254
 Alpha virt. eigenvalues --    0.00287   0.00527   0.00796   0.00901   0.00986

  Beta  occ. eigenvalues --  -38.44461 -38.44393 -38.44095 -38.43859 -38.43726
  Beta  occ. eigenvalues --  -38.43170 -38.42423  -2.20382  -2.20338  -2.20071
  Beta  occ. eigenvalues --   -2.19749  -2.19706  -2.19437  -2.18490  -1.14179
  Beta  occ. eigenvalues --   -1.14109  -1.14067  -1.14039  -1.14012  -1.13993
  Beta  occ. eigenvalues --   -1.13835  -1.13768  -1.13689  -1.13481  -1.13427
  Beta  occ. eigenvalues --   -1.13375  -1.13362  -1.13334  -1.13308  -1.13130
  Beta  occ. eigenvalues --   -1.13050  -1.13038  -1.12196  -1.12145  -1.12082
  Beta  occ. eigenvalues --   -0.19271  -0.14035  -0.11491
  Beta virt. eigenvalues --   -0.07792  -0.05588  -0.05106  -0.03215  -0.03052
  Beta virt. eigenvalues --   -0.02301  -0.01749  -0.01563  -0.00775  -0.00068
  Beta virt. eigenvalues --    0.00280   0.00336   0.00546   0.00877   0.00914

 Mulliken charges and spin densities:
               1          2
     1  Na  -1.325640   0.560325
     2  Na  -0.168679   0.334047
     3  Na   0.228548   0.002426
     4  Na   0.346551   0.041317
     5  Na   0.291096   0.141676
     6  Na   0.001931   0.032260
     7  Na   0.626193  -0.112052
 Sum of Mulliken charges =  -0.00000   1.00000

 Dipole moment (field-independent basis, Debye):
    X=              0.0216    Y=             -0.0099    Z=              0.2239  Tot=              0.2251
 Quadrupole moment (field-independent basis, Debye-Ang):
   XX=            -55.2753   YY=            -71.2802   ZZ=            -68.0746
   XY=             -0.2441   XZ=             -1.7063   YZ=             -1.1560

 Normal termination of Gaussian 16 at Mon Nov 13 15:58:49 2023.
