 Gaussian 16, Revision B.01,
 Gaussian 16:  ES64L-G16RevB.01 20-Dec-2017

 -------------------------
 #P B3LYP/6-311+g(d) force
 -------------------------

 ------------------------------
 Gaussian input prepared by ASE
 ------------------------------
 Symbolic Z-matrix:
 Charge =  0 Multiplicity = 2

                         Standard orientation:
 ---------------------------------------------------------------------
 Center     Atomic      Atomic             Coordinates (Angstroms)
 Number     Number       Type             X           Y           Z
 ---------------------------------------------------------------------
      1         11           0       -0.319704   -0.109770   -1.665326
      2         11           0       -0.762261   -1.449970    1.067885
      3         11           0       -2.935339   -0.194650   -0.399259
      4         11           0       -1.021290    1.612968    0.839332
      5         11           0        1.652127    1.622863   -0.736338
      6         11           0        1.545446    0.061631    1.562966
      7         11           0        1.841020   -1.543073   -0.669259
 ---------------------------------------------------------------------

 SCF Done:  E(UB3LYP) =  -1136.08322012     A.U. after   22 cycles

 The electronic state is 2-A.
 Alpha  occ. eigenvalues --  -38.44538 -38.44410 -38.44408 -38.43587 -38.43355
 Alpha  occ. eigenvalues --  -38.43239 -38.43025  -2.20748  -2.20676  -2.20425
 Alpha  occ. eigenvalues --   -2.19694  -2.19465  -2.19412  -2.19152  -1.14560
 Alpha  occ. eigenvalues --   -1.14505  -1.14488  -1.14391  -1.14370  -1.14311
 Alpha  occ. eigenvalues --   -1.14133  -1.14046  -1.14035  -1.13377  -1.13340
 Alpha  occ. eigenvalues --   -1.13269  -1.13155  -1.13142  -1.13120  -1.13050
 Alpha  occ. eigenvalues --   -1.13027  -1.12984  -1.12831  -1.12793  -1.12726
 Alpha  occ. eigenvalues --   -0.21501  -0.14234  -0.12882  -0.11958
 Alpha virt. eigenvalues --   -0.05608  -0.04311  -0.03947  -0.03773  -0.02998
 Alpha virt. eigenvalues --   -0.02822  -0.01207  -0.00378  -0.00296   0.00305
 Alpha virt. eigenvalues --    0.00706   0.00946   0.01003   0.01051   0.01083

  Beta  occ. eigenvalues --  -38.44471 -38.44404 -38.44321 -38.43564 -38.43334
  Beta  occ. eigenvalues --  -38.43199 -38.42995  -2.20629  -2.20522  -2.20414
  Beta  occ. eigenvalues --   -2.19659  -2.19432  -2.19346  -2.19104  -1.14483
  Beta  occ. eigenvalues --   -1.14408  -1.14378  -1.14311  -1.14284  -1.14202
  Beta  occ. eigenvalues --   -1.14111  -1.14042  -1.13987  -1.13351  -1.13286
  Beta  occ. eigenvalues --   -1.13235  -1.13134  -1.13092  -1.13069  -1.12999
  Beta  occ. eigenvalues --   -1.12981  -1.12930  -1.12800  -1.12732  -1.12685
  Beta  occ. eigenvalues --   -0.20648  -0.13977  -0.11700
  Beta virt. eigenvalues --   -0.08448  -0.05542  -0.03970  -0.03512  -0.03263
  Beta virt. eigenvalues --   -0.02216  -0.01972  -0.01156  -0.00321  -0.00083
  Beta virt. eigenvalues --    0.00339   0.00790   0.00976   0.01047   0.01100

 Mulliken charges and spin densities:
               1          2
     1  Na  -0.082054   0.412735
     2  Na  -0.695788   0.209070
     3  Na   1.014186  -0.001176
     4  Na  -0.811284   0.123660
     5  Na   0.030913  -0.029236
     6  Na   0.674193   0.323233
     7  Na  -0.130167  -0.038286
 Sum of Mulliken charges =  -0.00000   1.00000

 Dipole moment (field-independent basis, Debye):
    X=             -0.3569    Y=              0.0292    Z=             -0.0761  Tot=              0.3661
 Quadrupole moment (field-independent basis, Debye-Ang):
   XX=            -57.3929   YY=            -74.9087   ZZ=            -64.8914
   XY=              0.0174   XZ=              0.1023   YZ=              0.8527

 Normal termination of Gaussian 16 at Mon Nov 13 18:20:26 2023.
