 Gaussian 16, Revision B.01,
 Gaussian 16:  ES64L-G16RevB.01 20-Dec-2017

 -------------------------
 #P B3LYP/6-311+g(d) force
 -------------------------

 ------------------------------
 Gaussian input prepared by ASE
 ------------------------------
 Symbolic Z-matrix:
 Charge =  0 Multiplicity = 2

                         Standard orientation:
 ---------------------------------------------------------------------
 Center     Atomic      Atomic             Coordinates (Angstroms)
 Number     Number       Type             X           Y           Z
 ---------------------------------------------------------------------
      1         11           0        0.544348    0.282606   -1.215468
      2         11           0        0.210845    2.090402    1.154083
      3         11           0       -2.095639    1.616024   -0.701048
      4         11           0       -3.274839   -1.034855    0.069431
      5         11           0       -0.500512   -2.185972    0.139434
      6         11           0        1.632262   -0.532063    1.448757
      7         11           0        3.483536   -0.236141   -0.895189
 ---------------------------------------------------------------------

 SCF Done:  E(UB3LYP) =  -1136.10123839     A.U. after   25 cycles

 The electronic state is 2-A.
 Alpha  occ. eigenvalues --  -38.45098 -38.44765 -38.43973 -38.43784 -38.43562
 Alpha  occ. eigenvalues --  -38.43349 -38.43094  -2.20999  -2.20640  -2.20149
 Alpha  occ. eigenvalues --   -2.19877  -2.19545  -2.19314  -2.19090  -1.14704
 Alpha  occ. eigenvalues --   -1.14670  -1.14593  -1.14343  -1.14318  -1.14271
 Alpha  occ. eigenvalues --   -1.13937  -1.13832  -1.13804  -1.13574  -1.13530
 Alpha  occ. eigenvalues --   -1.13479  -1.13236  -1.13202  -1.13168  -1.13004
 Alpha  occ. eigenvalues --   -1.12951  -1.12918  -1.12774  -1.12704  -1.12687
 Alpha  occ. eigenvalues --   -0.19803  -0.14408  -0.11994  -0.11206
 Alpha virt. eigenvalues --   -0.06896  -0.04802  -0.04004  -0.03538  -0.02636
 Alpha virt. eigenvalues --   -0.02417  -0.02218  -0.00653  -0.00396   0.00078
 Alpha virt. eigenvalues --    0.00250   0.00317   0.00670   0.00858   0.00961

  Beta  occ. eigenvalues --  -38.45048 -38.44769 -38.43934 -38.43725 -38.43550
  Beta  occ. eigenvalues --  -38.43330 -38.43054  -2.20908  -2.20651  -2.20083
  Beta  occ. eigenvalues --   -2.19774  -2.19524  -2.19283  -2.19020  -1.14646
  Beta  occ. eigenvalues --   -1.14593  -1.14530  -1.14346  -1.14325  -1.14273
  Beta  occ. eigenvalues --   -1.13870  -1.13775  -1.13762  -1.13497  -1.13450
  Beta  occ. eigenvalues --   -1.13388  -1.13223  -1.13176  -1.13155  -1.12986
  Beta  occ. eigenvalues --   -1.12906  -1.12897  -1.12729  -1.12653  -1.12622
  Beta  occ. eigenvalues --   -0.19110  -0.14094  -0.11834
  Beta virt. eigenvalues --   -0.07208  -0.06660  -0.04612  -0.03699  -0.03172
  Beta virt. eigenvalues --   -0.02437  -0.01875  -0.01263  -0.00560  -0.00108
  Beta virt. eigenvalues --    0.00168   0.00311   0.00350   0.00801   0.00894

 Mulliken charges and spin densities:
               1          2
     1  Na  -2.093414   0.004350
     2  Na  -0.194554   0.327039
     3  Na   1.710443   0.090303
     4  Na  -0.779442  -0.113529
     5  Na   0.701820   0.412578
     6  Na   0.252967   0.019199
     7  Na   0.402179   0.260059
 Sum of Mulliken charges =  -0.00000   1.00000

 Dipole moment (field-independent basis, Debye):
    X=              0.1981    Y=              0.0000    Z=              0.3088  Tot=              0.3669
 Quadrupole moment (field-independent basis, Debye-Ang):
   XX=            -49.1764   YY=            -74.1986   ZZ=            -71.1865
   XY=             -0.7721   XZ=             -0.2396   YZ=              0.4252

 Normal termination of Gaussian 16 at Mon Nov 13 16:06:34 2023.
