 Gaussian 16, Revision B.01,
 Gaussian 16:  ES64L-G16RevB.01 20-Dec-2017

 -------------------------
 #P B3LYP/6-311+g(d) force
 -------------------------

 ------------------------------
 Gaussian input prepared by ASE
 ------------------------------
 Symbolic Z-matrix:
 Charge =  0 Multiplicity = 2

                         Standard orientation:
 ---------------------------------------------------------------------
 Center     Atomic      Atomic             Coordinates (Angstroms)
 Number     Number       Type             X           Y           Z
 ---------------------------------------------------------------------
      1         11           0        0.492205   -1.123173   -0.868464
      2         11           0       -0.715956    1.273649   -1.695116
      3         11           0       -2.305898   -1.209956   -0.670076
      4         11           0       -0.392748   -1.133424    1.799364
      5         11           0       -1.577137    1.274280    0.977761
      6         11           0        1.220256    1.346844    0.767173
      7         11           0        3.279276   -0.428221   -0.310642
 ---------------------------------------------------------------------

 SCF Done:  E(UB3LYP) =  -1136.08325367     A.U. after   26 cycles

 The electronic state is 2-A.
 Alpha  occ. eigenvalues --  -38.44626 -38.43951 -38.43834 -38.43829 -38.43653
 Alpha  occ. eigenvalues --  -38.43511 -38.43306  -2.20535  -2.20156  -2.19978
 Alpha  occ. eigenvalues --   -2.19931  -2.19891  -2.19623  -2.19475  -1.14296
 Alpha  occ. eigenvalues --   -1.14235  -1.14127  -1.14101  -1.13958  -1.13902
 Alpha  occ. eigenvalues --   -1.13844  -1.13826  -1.13701  -1.13566  -1.13509
 Alpha  occ. eigenvalues --   -1.13485  -1.13444  -1.13427  -1.13371  -1.13232
 Alpha  occ. eigenvalues --   -1.13201  -1.13188  -1.13153  -1.13088  -1.13013
 Alpha  occ. eigenvalues --   -0.21297  -0.13973  -0.13113  -0.11591
 Alpha virt. eigenvalues --   -0.05905  -0.04222  -0.03852  -0.03471  -0.03004
 Alpha virt. eigenvalues --   -0.02759  -0.01560  -0.00547  -0.00242   0.00277
 Alpha virt. eigenvalues --    0.00623   0.00703   0.00929   0.01016   0.01074

  Beta  occ. eigenvalues --  -38.44624 -38.43900 -38.43801 -38.43772 -38.43603
  Beta  occ. eigenvalues --  -38.43463 -38.43270  -2.20532  -2.20070  -2.19894
  Beta  occ. eigenvalues --   -2.19841  -2.19822  -2.19538  -2.19415  -1.14287
  Beta  occ. eigenvalues --   -1.14227  -1.14122  -1.14035  -1.13868  -1.13849
  Beta  occ. eigenvalues --   -1.13769  -1.13748  -1.13647  -1.13490  -1.13466
  Beta  occ. eigenvalues --   -1.13407  -1.13368  -1.13362  -1.13316  -1.13183
  Beta  occ. eigenvalues --   -1.13142  -1.13113  -1.13088  -1.13024  -1.12963
  Beta  occ. eigenvalues --   -0.20385  -0.13741  -0.11457
  Beta virt. eigenvalues --   -0.08507  -0.05790  -0.03794  -0.03303  -0.03141
  Beta virt. eigenvalues --   -0.02381  -0.01902  -0.01485  -0.00317  -0.00157
  Beta virt. eigenvalues --    0.00316   0.00673   0.00790   0.01022   0.01043

 Mulliken charges and spin densities:
               1          2
     1  Na  -0.668278   0.325928
     2  Na   0.205981   0.340927
     3  Na   0.301266  -0.133163
     4  Na   0.182429   0.313672
     5  Na   0.249020   0.168290
     6  Na  -0.464175   0.005863
     7  Na   0.193758  -0.021517
 Sum of Mulliken charges =  -0.00000   1.00000

 Dipole moment (field-independent basis, Debye):
    X=              0.3767    Y=             -0.0650    Z=             -0.1083  Tot=              0.3973
 Quadrupole moment (field-independent basis, Debye-Ang):
   XX=            -54.6932   YY=            -76.8599   ZZ=            -63.8280
   XY=             -0.0090   XZ=              0.1913   YZ=              2.6152

 Normal termination of Gaussian 16 at Mon Nov 13 19:32:45 2023.
