 Gaussian 16, Revision B.01,
 Gaussian 16:  ES64L-G16RevB.01 20-Dec-2017

 -------------------------
 #P B3LYP/6-311+g(d) force
 -------------------------

 ------------------------------
 Gaussian input prepared by ASE
 ------------------------------
 Symbolic Z-matrix:
 Charge =  0 Multiplicity = 2

                         Standard orientation:
 ---------------------------------------------------------------------
 Center     Atomic      Atomic             Coordinates (Angstroms)
 Number     Number       Type             X           Y           Z
 ---------------------------------------------------------------------
      1         11           0       -3.874562    0.120268   -0.001342
      2         11           0       -0.887446    0.088557   -0.291004
      3         11           0       -0.421959    2.855930    0.773857
      4         11           0        1.490890    1.675330   -1.203762
      5         11           0        3.360791   -0.337797    0.000976
      6         11           0        0.992574   -1.524376    1.410118
      7         11           0       -0.660288   -2.877912   -0.688843
 ---------------------------------------------------------------------

 SCF Done:  E(UB3LYP) =  -1136.09937115     A.U. after   31 cycles

 The electronic state is 2-A.
 Alpha  occ. eigenvalues --  -38.45090 -38.44806 -38.44500 -38.43650 -38.43628
 Alpha  occ. eigenvalues --  -38.43464 -38.42976  -2.20885  -2.20677  -2.20392
 Alpha  occ. eigenvalues --   -2.19618  -2.19559  -2.19462  -2.19159  -1.14581
 Alpha  occ. eigenvalues --   -1.14531  -1.14498  -1.14422  -1.14346  -1.14274
 Alpha  occ. eigenvalues --   -1.14095  -1.14083  -1.14009  -1.13427  -1.13324
 Alpha  occ. eigenvalues --   -1.13247  -1.13241  -1.13199  -1.13160  -1.13115
 Alpha  occ. eigenvalues --   -1.13091  -1.13065  -1.12830  -1.12792  -1.12770
 Alpha  occ. eigenvalues --   -0.18819  -0.13422  -0.13085  -0.09753
 Alpha virt. eigenvalues --   -0.07204  -0.05133  -0.04113  -0.03297  -0.02882
 Alpha virt. eigenvalues --   -0.02584  -0.01311  -0.01227  -0.00498  -0.00045
 Alpha virt. eigenvalues --    0.00028   0.00071   0.00319   0.00600   0.00936

  Beta  occ. eigenvalues --  -38.45058 -38.44807 -38.44471 -38.43611 -38.43596
  Beta  occ. eigenvalues --  -38.43419 -38.42962  -2.20827  -2.20680  -2.20344
  Beta  occ. eigenvalues --   -2.19564  -2.19487  -2.19379  -2.19140  -1.14544
  Beta  occ. eigenvalues --   -1.14488  -1.14455  -1.14426  -1.14328  -1.14278
  Beta  occ. eigenvalues --   -1.14056  -1.14029  -1.13976  -1.13378  -1.13286
  Beta  occ. eigenvalues --   -1.13212  -1.13192  -1.13145  -1.13105  -1.13056
  Beta  occ. eigenvalues --   -1.13040  -1.13002  -1.12817  -1.12764  -1.12723
  Beta  occ. eigenvalues --   -0.18321  -0.12868  -0.12860
  Beta virt. eigenvalues --   -0.07024  -0.06282  -0.04926  -0.03959  -0.02767
  Beta virt. eigenvalues --   -0.02421  -0.02232  -0.01217  -0.00750  -0.00328
  Beta virt. eigenvalues --    0.00092   0.00175   0.00225   0.00511   0.00637

 Mulliken charges and spin densities:
               1          2
     1  Na   0.074848   0.119001
     2  Na  -4.128408   0.522639
     3  Na   0.326045   0.136306
     4  Na   2.777637  -0.017444
     5  Na  -0.782486   0.318504
     6  Na   1.154186   0.006340
     7  Na   0.578179  -0.085345
 Sum of Mulliken charges =  -0.00000   1.00000

 Dipole moment (field-independent basis, Debye):
    X=             -0.5544    Y=             -0.4497    Z=              0.6244  Tot=              0.9484
 Quadrupole moment (field-independent basis, Debye-Ang):
   XX=            -60.1212   YY=            -62.4421   ZZ=            -71.8564
   XY=             -2.0926   XZ=              0.6039   YZ=              3.2661

 Normal termination of Gaussian 16 at Mon Nov 13 17:08:57 2023.
