 Gaussian 16, Revision B.01,
 Gaussian 16:  ES64L-G16RevB.01 20-Dec-2017

 -------------------------
 #P B3LYP/6-311+g(d) force
 -------------------------

 ------------------------------
 Gaussian input prepared by ASE
 ------------------------------
 Symbolic Z-matrix:
 Charge =  0 Multiplicity = 2

                         Standard orientation:
 ---------------------------------------------------------------------
 Center     Atomic      Atomic             Coordinates (Angstroms)
 Number     Number       Type             X           Y           Z
 ---------------------------------------------------------------------
      1         11           0       -0.587549    2.311381   -1.310923
      2         11           0        0.436710    2.207590    1.495281
      3         11           0       -3.375961   -1.644390   -0.981399
      4         11           0       -1.643833    0.240154    0.587008
      5         11           0        0.140060   -1.977445    1.548220
      6         11           0        1.158879    0.030393   -0.439672
      7         11           0        3.871694   -1.167684   -0.898515
 ---------------------------------------------------------------------

 SCF Done:  E(UB3LYP) =  -1136.10068687     A.U. after   24 cycles

 The electronic state is 2-A.
 Alpha  occ. eigenvalues --  -38.44347 -38.44276 -38.44197 -38.44083 -38.43968
 Alpha  occ. eigenvalues --  -38.42913 -38.42864  -2.20276  -2.20237  -2.20008
 Alpha  occ. eigenvalues --   -2.19959  -2.19893  -2.19083  -2.19053  -1.14039
 Alpha  occ. eigenvalues --   -1.14008  -1.13933  -1.13904  -1.13868  -1.13820
 Alpha  occ. eigenvalues --   -1.13713  -1.13687  -1.13647  -1.13625  -1.13599
 Alpha  occ. eigenvalues --   -1.13593  -1.13531  -1.13527  -1.13510  -1.12904
 Alpha  occ. eigenvalues --   -1.12743  -1.12722  -1.12695  -1.12651  -1.12637
 Alpha  occ. eigenvalues --   -0.19376  -0.12763  -0.12597  -0.11288
 Alpha virt. eigenvalues --   -0.06191  -0.04786  -0.04385  -0.03091  -0.02729
 Alpha virt. eigenvalues --   -0.02062  -0.01506  -0.01341  -0.00680   0.00080
 Alpha virt. eigenvalues --    0.00165   0.00259   0.00632   0.00794   0.00897

  Beta  occ. eigenvalues --  -38.44303 -38.44241 -38.44172 -38.44051 -38.43935
  Beta  occ. eigenvalues --  -38.42892 -38.42836  -2.20215  -2.20160  -2.19962
  Beta  occ. eigenvalues --   -2.19898  -2.19835  -2.19054  -2.19014  -1.14003
  Beta  occ. eigenvalues --   -1.13953  -1.13893  -1.13838  -1.13804  -1.13768
  Beta  occ. eigenvalues --   -1.13683  -1.13645  -1.13613  -1.13592  -1.13558
  Beta  occ. eigenvalues --   -1.13550  -1.13491  -1.13479  -1.13471  -1.12874
  Beta  occ. eigenvalues --   -1.12686  -1.12674  -1.12640  -1.12620  -1.12596
  Beta  occ. eigenvalues --   -0.18581  -0.12460  -0.12280
  Beta virt. eigenvalues --   -0.07602  -0.05696  -0.04548  -0.04104  -0.02719
  Beta virt. eigenvalues --   -0.02409  -0.01455  -0.01317  -0.01157  -0.00358
  Beta virt. eigenvalues --    0.00186   0.00228   0.00426   0.00699   0.00850

 Mulliken charges and spin densities:
               1          2
     1  Na  -0.364186  -0.139439
     2  Na   1.629966   0.352798
     3  Na  -0.043587  -0.122023
     4  Na  -0.443259   0.611125
     5  Na   0.307595   0.262035
     6  Na  -1.465813  -0.034463
     7  Na   0.379283   0.069966
 Sum of Mulliken charges =  -0.00000   1.00000

 Dipole moment (field-independent basis, Debye):
    X=              0.0720    Y=              0.2127    Z=              0.2976  Tot=              0.3728
 Quadrupole moment (field-independent basis, Debye-Ang):
   XX=            -62.3111   YY=            -63.2188   ZZ=            -65.4637
   XY=              0.8047   XZ=              3.0340   YZ=              0.6510

 Normal termination of Gaussian 16 at Mon Nov 13 19:27:15 2023.
