 Gaussian 16, Revision B.01,
 Gaussian 16:  ES64L-G16RevB.01 20-Dec-2017

 -------------------------
 #P B3LYP/6-311+g(d) force
 -------------------------

 ------------------------------
 Gaussian input prepared by ASE
 ------------------------------
 Symbolic Z-matrix:
 Charge =  0 Multiplicity = 2

                         Standard orientation:
 ---------------------------------------------------------------------
 Center     Atomic      Atomic             Coordinates (Angstroms)
 Number     Number       Type             X           Y           Z
 ---------------------------------------------------------------------
      1         11           0        0.297852    0.499860    0.370293
      2         11           0       -1.747523   -1.244261    1.710318
      3         11           0       -1.490507    2.820875   -0.283569
      4         11           0       -2.358440    0.024103   -0.936997
      5         11           0       -0.350406   -2.199154   -0.766668
      6         11           0        2.510066   -1.364454   -0.430091
      7         11           0        3.138956    1.463032    0.336713
 ---------------------------------------------------------------------

 SCF Done:  E(UB3LYP) =  -1136.10100961     A.U. after   20 cycles

 The electronic state is 2-A.
 Alpha  occ. eigenvalues --  -38.44609 -38.44118 -38.43965 -38.43805 -38.43691
 Alpha  occ. eigenvalues --  -38.43153 -38.42945  -2.20491  -2.20087  -2.20043
 Alpha  occ. eigenvalues --   -2.19817  -2.19577  -2.19239  -2.19218  -1.14230
 Alpha  occ. eigenvalues --   -1.14153  -1.14113  -1.13840  -1.13827  -1.13741
 Alpha  occ. eigenvalues --   -1.13721  -1.13708  -1.13697  -1.13522  -1.13429
 Alpha  occ. eigenvalues --   -1.13401  -1.13301  -1.13214  -1.13193  -1.13029
 Alpha  occ. eigenvalues --   -1.12875  -1.12867  -1.12855  -1.12823  -1.12785
 Alpha  occ. eigenvalues --   -0.19718  -0.14241  -0.12657  -0.10541
 Alpha virt. eigenvalues --   -0.06154  -0.05351  -0.04383  -0.03208  -0.02546
 Alpha virt. eigenvalues --   -0.01917  -0.01523  -0.00996  -0.00427  -0.00179
 Alpha virt. eigenvalues --    0.00075   0.00349   0.00791   0.00812   0.00902

  Beta  occ. eigenvalues --  -38.44601 -38.44104 -38.43936 -38.43722 -38.43686
  Beta  occ. eigenvalues --  -38.43120 -38.42919  -2.20476  -2.20064  -2.19993
  Beta  occ. eigenvalues --   -2.19663  -2.19571  -2.19195  -2.19168  -1.14221
  Beta  occ. eigenvalues --   -1.14142  -1.14099  -1.13819  -1.13796  -1.13709
  Beta  occ. eigenvalues --   -1.13695  -1.13665  -1.13640  -1.13425  -1.13323
  Beta  occ. eigenvalues --   -1.13302  -1.13295  -1.13199  -1.13182  -1.12998
  Beta  occ. eigenvalues --   -1.12845  -1.12832  -1.12781  -1.12757  -1.12734
  Beta  occ. eigenvalues --   -0.19031  -0.14004  -0.12370
  Beta virt. eigenvalues --   -0.06693  -0.05918  -0.05066  -0.04285  -0.02664
  Beta virt. eigenvalues --   -0.02004  -0.01631  -0.01029  -0.00745  -0.00298
  Beta virt. eigenvalues --    0.00072   0.00178   0.00434   0.00826   0.00896

 Mulliken charges and spin densities:
               1          2
     1  Na  -2.856484   0.688986
     2  Na   0.597638   0.063187
     3  Na   0.366016  -0.016323
     4  Na   0.499745   0.206569
     5  Na   0.744270   0.254964
     6  Na   0.366739  -0.004398
     7  Na   0.282076  -0.192986
 Sum of Mulliken charges =  -0.00000   1.00000

 Dipole moment (field-independent basis, Debye):
    X=              0.5555    Y=              0.3253    Z=              0.0487  Tot=              0.6456
 Quadrupole moment (field-independent basis, Debye-Ang):
   XX=            -55.0225   YY=            -63.4563   ZZ=            -74.0838
   XY=              1.5796   XZ=              0.2644   YZ=              0.6933

 Normal termination of Gaussian 16 at Mon Nov 13 16:18:21 2023.
