 Gaussian 16, Revision B.01,
 Gaussian 16:  ES64L-G16RevB.01 20-Dec-2017

 -------------------------
 #P B3LYP/6-311+g(d) force
 -------------------------

 ------------------------------
 Gaussian input prepared by ASE
 ------------------------------
 Symbolic Z-matrix:
 Charge =  0 Multiplicity = 2

                         Standard orientation:
 ---------------------------------------------------------------------
 Center     Atomic      Atomic             Coordinates (Angstroms)
 Number     Number       Type             X           Y           Z
 ---------------------------------------------------------------------
      1         11           0        2.135713   -1.848954    1.105242
      2         11           0       -5.262432   -0.963325   -0.358420
      3         11           0       -2.363626    1.972488    1.549544
      4         11           0       -2.381480   -0.158415   -0.561056
      5         11           0        0.570949   -0.411887   -1.014727
      6         11           0        2.739095    1.664032   -1.067799
      7         11           0        4.561780   -0.253939    0.347215
 ---------------------------------------------------------------------

 SCF Done:  E(UB3LYP) =  -1136.08333796     A.U. after   29 cycles

 The electronic state is 2-A.
 Alpha  occ. eigenvalues --  -38.47622 -38.44703 -38.44434 -38.43785 -38.43520
 Alpha  occ. eigenvalues --  -38.43472 -38.43225  -2.23377  -2.20617  -2.20352
 Alpha  occ. eigenvalues --   -2.19782  -2.19465  -2.19425  -2.19041  -1.17071
 Alpha  occ. eigenvalues --   -1.17044  -1.16970  -1.14304  -1.14268  -1.14236
 Alpha  occ. eigenvalues --   -1.14044  -1.14001  -1.13981  -1.13526  -1.13481
 Alpha  occ. eigenvalues --   -1.13422  -1.13156  -1.13122  -1.13100  -1.13080
 Alpha  occ. eigenvalues --   -1.13057  -1.13040  -1.12730  -1.12686  -1.12659
 Alpha  occ. eigenvalues --   -0.17739  -0.15039  -0.11269  -0.10443
 Alpha virt. eigenvalues --   -0.08267  -0.04818  -0.04405  -0.03786  -0.03115
 Alpha virt. eigenvalues --   -0.02615  -0.01915  -0.01306  -0.01247  -0.00736
 Alpha virt. eigenvalues --   -0.00039   0.00083   0.00252   0.00396   0.00536

  Beta  occ. eigenvalues --  -38.47605 -38.44620 -38.44362 -38.43782 -38.43507
  Beta  occ. eigenvalues --  -38.43445 -38.43223  -2.23344  -2.20466  -2.20220
  Beta  occ. eigenvalues --   -2.19779  -2.19424  -2.19406  -2.19036  -1.17049
  Beta  occ. eigenvalues --   -1.17020  -1.16946  -1.14206  -1.14160  -1.14127
  Beta  occ. eigenvalues --   -1.13953  -1.13909  -1.13891  -1.13512  -1.13478
  Beta  occ. eigenvalues --   -1.13419  -1.13126  -1.13077  -1.13059  -1.13052
  Beta  occ. eigenvalues --   -1.13039  -1.13010  -1.12728  -1.12683  -1.12656
  Beta  occ. eigenvalues --   -0.17085  -0.14745  -0.10390
  Beta virt. eigenvalues --   -0.08052  -0.07249  -0.04625  -0.04086  -0.03389
  Beta virt. eigenvalues --   -0.02612  -0.02202  -0.01602  -0.01258  -0.00914
  Beta virt. eigenvalues --   -0.00518   0.00106   0.00246   0.00328   0.00568

 Mulliken charges and spin densities:
               1          2
     1  Na  -0.117768   0.217665
     2  Na   0.460663   0.007474
     3  Na   0.219404   0.061093
     4  Na  -1.289910   0.096338
     5  Na  -0.257308   0.186528
     6  Na   0.249817   0.397734
     7  Na   0.735101   0.033168
 Sum of Mulliken charges =  -0.00000   1.00000

 Dipole moment (field-independent basis, Debye):
    X=             -0.2059    Y=              1.6631    Z=              1.6196  Tot=              2.3306
 Quadrupole moment (field-independent basis, Debye-Ang):
   XX=            -77.7117   YY=            -66.4895   ZZ=            -63.9754
   XY=             -3.4062   XZ=             -4.5998   YZ=              6.3359

 Normal termination of Gaussian 16 at Mon Nov 13 15:03:43 2023.
