 Gaussian 16, Revision B.01,
 Gaussian 16:  ES64L-G16RevB.01 20-Dec-2017

 -------------------------
 #P B3LYP/6-311+g(d) force
 -------------------------

 ------------------------------
 Gaussian input prepared by ASE
 ------------------------------
 Symbolic Z-matrix:
 Charge =  0 Multiplicity = 2

                         Standard orientation:
 ---------------------------------------------------------------------
 Center     Atomic      Atomic             Coordinates (Angstroms)
 Number     Number       Type             X           Y           Z
 ---------------------------------------------------------------------
      1         11           0        0.205676   -0.597458   -0.203174
      2         11           0       -1.057205   -0.632185    2.523890
      3         11           0       -2.287776   -1.488688   -1.623300
      4         11           0       -2.377951    0.840654    0.265071
      5         11           0       -0.025047    2.320366   -0.867026
      6         11           0        2.541436    1.231183    0.236411
      7         11           0        3.000869   -1.673872   -0.331871
 ---------------------------------------------------------------------

 SCF Done:  E(UB3LYP) =  -1136.09984117     A.U. after   24 cycles

 The electronic state is 2-A.
 Alpha  occ. eigenvalues --  -38.45006 -38.44653 -38.43968 -38.43904 -38.43876
 Alpha  occ. eigenvalues --  -38.42909 -38.42324  -2.20918  -2.20560  -2.20045
 Alpha  occ. eigenvalues --   -2.19854  -2.19787  -2.19197  -2.18305  -1.14630
 Alpha  occ. eigenvalues --   -1.14555  -1.14484  -1.14280  -1.14223  -1.14141
 Alpha  occ. eigenvalues --   -1.13772  -1.13712  -1.13656  -1.13643  -1.13576
 Alpha  occ. eigenvalues --   -1.13490  -1.13479  -1.13404  -1.13350  -1.12917
 Alpha  occ. eigenvalues --   -1.12844  -1.12825  -1.11997  -1.11963  -1.11908
 Alpha  occ. eigenvalues --   -0.19545  -0.14155  -0.12019  -0.11474
 Alpha virt. eigenvalues --   -0.05822  -0.05206  -0.03905  -0.03562  -0.02712
 Alpha virt. eigenvalues --   -0.02547  -0.01689  -0.00839  -0.00378   0.00132
 Alpha virt. eigenvalues --    0.00243   0.00441   0.00643   0.00872   0.00889

  Beta  occ. eigenvalues --  -38.44892 -38.44583 -38.43946 -38.43908 -38.43879
  Beta  occ. eigenvalues --  -38.42884 -38.42319  -2.20710  -2.20430  -2.20016
  Beta  occ. eigenvalues --   -2.19860  -2.19795  -2.19162  -2.18298  -1.14491
  Beta  occ. eigenvalues --   -1.14409  -1.14341  -1.14197  -1.14133  -1.14047
  Beta  occ. eigenvalues --   -1.13760  -1.13660  -1.13640  -1.13605  -1.13583
  Beta  occ. eigenvalues --   -1.13486  -1.13483  -1.13407  -1.13358  -1.12832
  Beta  occ. eigenvalues --   -1.12818  -1.12804  -1.11993  -1.11961  -1.11890
  Beta  occ. eigenvalues --   -0.18756  -0.13909  -0.11320
  Beta virt. eigenvalues --   -0.07828  -0.05595  -0.05015  -0.03451  -0.03116
  Beta virt. eigenvalues --   -0.02111  -0.01898  -0.01525  -0.00660  -0.00150
  Beta virt. eigenvalues --    0.00213   0.00316   0.00479   0.00863   0.00914

 Mulliken charges and spin densities:
               1          2
     1  Na  -2.387453   0.304195
     2  Na  -0.540362   0.336898
     3  Na   0.579606   0.544634
     4  Na   3.327063   0.218395
     5  Na  -0.689375   0.228014
     6  Na   0.644188  -0.250216
     7  Na  -0.933666  -0.381920
 Sum of Mulliken charges =  -0.00000   1.00000

 Dipole moment (field-independent basis, Debye):
    X=             -0.1339    Y=             -0.4368    Z=              0.3019  Tot=              0.5476
 Quadrupole moment (field-independent basis, Debye-Ang):
   XX=            -56.0746   YY=            -72.4577   ZZ=            -65.3637
   XY=             -0.1327   XZ=              1.4735   YZ=              2.4519

 Normal termination of Gaussian 16 at Mon Nov 13 15:17:14 2023.
