 Gaussian 16, Revision B.01,
 Gaussian 16:  ES64L-G16RevB.01 20-Dec-2017

 -------------------------
 #P B3LYP/6-311+g(d) force
 -------------------------

 ------------------------------
 Gaussian input prepared by ASE
 ------------------------------
 Symbolic Z-matrix:
 Charge =  0 Multiplicity = 2

                         Standard orientation:
 ---------------------------------------------------------------------
 Center     Atomic      Atomic             Coordinates (Angstroms)
 Number     Number       Type             X           Y           Z
 ---------------------------------------------------------------------
      1         11           0        0.398634   -1.238579    0.888340
      2         11           0        2.134423   -1.181452   -1.148322
      3         11           0        2.816331    0.211169    1.298715
      4         11           0        1.779668    1.616452   -0.947553
      5         11           0       -0.556462    1.174812    0.272645
      6         11           0       -2.115389   -1.024059   -0.574052
      7         11           0       -4.457206    0.441656    0.210227
 ---------------------------------------------------------------------

 SCF Done:  E(UB3LYP) =  -1136.05426684     A.U. after   34 cycles

 The electronic state is 2-A.
 Alpha  occ. eigenvalues --  -38.46357 -38.45729 -38.45170 -38.44612 -38.44220
 Alpha  occ. eigenvalues --  -38.43475 -38.43308  -2.22171  -2.21845  -2.21273
 Alpha  occ. eigenvalues --   -2.20712  -2.20261  -2.19712  -2.19429  -1.15907
 Alpha  occ. eigenvalues --   -1.15807  -1.15783  -1.15675  -1.15565  -1.15475
 Alpha  occ. eigenvalues --   -1.15128  -1.14948  -1.14898  -1.14430  -1.14370
 Alpha  occ. eigenvalues --   -1.14291  -1.14047  -1.13879  -1.13855  -1.13380
 Alpha  occ. eigenvalues --   -1.13320  -1.13258  -1.13120  -1.13070  -1.12987
 Alpha  occ. eigenvalues --   -0.20664  -0.15353  -0.11255  -0.10946
 Alpha virt. eigenvalues --   -0.08498  -0.04690  -0.03955  -0.03853  -0.02856
 Alpha virt. eigenvalues --   -0.01754  -0.01671  -0.01421  -0.00835  -0.00182
 Alpha virt. eigenvalues --    0.00052   0.00348   0.00412   0.00686   0.00847

  Beta  occ. eigenvalues --  -38.46352 -38.45708 -38.45132 -38.44541 -38.44209
  Beta  occ. eigenvalues --  -38.43441 -38.43271  -2.22162  -2.21815  -2.21210
  Beta  occ. eigenvalues --   -2.20585  -2.20245  -2.19661  -2.19367  -1.15903
  Beta  occ. eigenvalues --   -1.15799  -1.15777  -1.15662  -1.15541  -1.15404
  Beta  occ. eigenvalues --   -1.15090  -1.14904  -1.14806  -1.14352  -1.14262
  Beta  occ. eigenvalues --   -1.14202  -1.14033  -1.13871  -1.13821  -1.13352
  Beta  occ. eigenvalues --   -1.13295  -1.13144  -1.13084  -1.13039  -1.12892
  Beta  occ. eigenvalues --   -0.19808  -0.15183  -0.10782
  Beta virt. eigenvalues --   -0.08260  -0.06902  -0.04600  -0.03713  -0.03523
  Beta virt. eigenvalues --   -0.02738  -0.01236  -0.01089  -0.00807  -0.00471
  Beta virt. eigenvalues --   -0.00054   0.00071   0.00346   0.00548   0.00757

 Mulliken charges and spin densities:
               1          2
     1  Na  -0.488073   0.023122
     2  Na   0.350076   0.297826
     3  Na   0.325319   0.056980
     4  Na  -0.130191   0.241170
     5  Na  -0.209339   0.203186
     6  Na  -0.200283   0.149386
     7  Na   0.352492   0.028330
 Sum of Mulliken charges =  -0.00000   1.00000

 Dipole moment (field-independent basis, Debye):
    X=             -1.6985    Y=             -0.3691    Z=             -0.3623  Tot=              1.7755
 Quadrupole moment (field-independent basis, Debye-Ang):
   XX=            -40.6163   YY=            -80.0027   ZZ=            -71.1491
   XY=             -2.9429   XZ=             -2.0429   YZ=              3.0868

 Normal termination of Gaussian 16 at Mon Nov 13 15:56:51 2023.
