 Gaussian 16, Revision B.01,
 Gaussian 16:  ES64L-G16RevB.01 20-Dec-2017

 -------------------------
 #P B3LYP/6-311+g(d) force
 -------------------------

 ------------------------------
 Gaussian input prepared by ASE
 ------------------------------
 Symbolic Z-matrix:
 Charge =  0 Multiplicity = 2

                         Standard orientation:
 ---------------------------------------------------------------------
 Center     Atomic      Atomic             Coordinates (Angstroms)
 Number     Number       Type             X           Y           Z
 ---------------------------------------------------------------------
      1         11           0       -0.787473    0.310202   -1.231380
      2         11           0        1.251443   -1.835433   -0.730975
      3         11           0       -3.546691   -0.119310   -0.132351
      4         11           0       -1.233715   -1.702239    0.939774
      5         11           0        3.540677    0.010491   -0.135464
      6         11           0        0.901821    0.390529    1.242755
      7         11           0       -0.126063    2.945760    0.047641
 ---------------------------------------------------------------------

 SCF Done:  E(UB3LYP) =  -1136.09502936     A.U. after   25 cycles

 The electronic state is 2-A.
 Alpha  occ. eigenvalues --  -38.45678 -38.45655 -38.43473 -38.43458 -38.43126
 Alpha  occ. eigenvalues --  -38.42916 -38.42843  -2.21546  -2.21522  -2.19629
 Alpha  occ. eigenvalues --   -2.19532  -2.19206  -2.19038  -2.18807  -1.15256
 Alpha  occ. eigenvalues --   -1.15228  -1.15213  -1.15194  -1.15154  -1.15127
 Alpha  occ. eigenvalues --   -1.13507  -1.13326  -1.13284  -1.13237  -1.13180
 Alpha  occ. eigenvalues --   -1.13126  -1.12939  -1.12821  -1.12810  -1.12725
 Alpha  occ. eigenvalues --   -1.12676  -1.12641  -1.12478  -1.12427  -1.12400
 Alpha  occ. eigenvalues --   -0.19898  -0.14124  -0.12107  -0.10496
 Alpha virt. eigenvalues --   -0.07377  -0.04238  -0.03983  -0.03463  -0.02925
 Alpha virt. eigenvalues --   -0.02254  -0.01636  -0.00693  -0.00279  -0.00126
 Alpha virt. eigenvalues --    0.00172   0.00260   0.00562   0.00779   0.01031

  Beta  occ. eigenvalues --  -38.45669 -38.45644 -38.43446 -38.43417 -38.43079
  Beta  occ. eigenvalues --  -38.42915 -38.42778  -2.21531  -2.21504  -2.19556
  Beta  occ. eigenvalues --   -2.19489  -2.19127  -2.18924  -2.18808  -1.15248
  Beta  occ. eigenvalues --   -1.15219  -1.15183  -1.15163  -1.15144  -1.15115
  Beta  occ. eigenvalues --   -1.13459  -1.13259  -1.13237  -1.13182  -1.13147
  Beta  occ. eigenvalues --   -1.13073  -1.12865  -1.12769  -1.12731  -1.12664
  Beta  occ. eigenvalues --   -1.12608  -1.12543  -1.12467  -1.12412  -1.12379
  Beta  occ. eigenvalues --   -0.19169  -0.13853  -0.11871
  Beta virt. eigenvalues --   -0.07233  -0.06511  -0.04174  -0.03872  -0.02868
  Beta virt. eigenvalues --   -0.02704  -0.01668  -0.00820  -0.00582  -0.00122
  Beta virt. eigenvalues --    0.00083   0.00206   0.00278   0.00719   0.00821

 Mulliken charges and spin densities:
               1          2
     1  Na  -0.228697   0.318196
     2  Na   0.157340   0.259744
     3  Na   0.021464   0.017180
     4  Na   0.115977   0.273293
     5  Na   0.056118   0.129279
     6  Na  -0.107361  -0.012748
     7  Na  -0.014841   0.015057
 Sum of Mulliken charges =  -0.00000   1.00000

 Dipole moment (field-independent basis, Debye):
    X=             -0.0089    Y=              0.2257    Z=              0.2468  Tot=              0.3345
 Quadrupole moment (field-independent basis, Debye-Ang):
   XX=            -44.3601   YY=            -70.2188   ZZ=            -75.2310
   XY=              0.9872   XZ=             -1.2571   YZ=             -0.0003

 Normal termination of Gaussian 16 at Mon Nov 13 19:10:36 2023.
