 Gaussian 16, Revision B.01,
 Gaussian 16:  ES64L-G16RevB.01 20-Dec-2017

 -------------------------
 #P B3LYP/6-311+g(d) force
 -------------------------

 ------------------------------
 Gaussian input prepared by ASE
 ------------------------------
 Symbolic Z-matrix:
 Charge =  0 Multiplicity = 2

                         Standard orientation:
 ---------------------------------------------------------------------
 Center     Atomic      Atomic             Coordinates (Angstroms)
 Number     Number       Type             X           Y           Z
 ---------------------------------------------------------------------
      1         11           0        1.229679   -1.691031   -0.096899
      2         11           0       -1.226231   -1.692602    0.097622
      3         11           0       -2.194353    0.662768    0.012324
      4         11           0        0.076491   -0.050861    1.945230
      5         11           0        2.193778    0.668959   -0.013048
      6         11           0       -0.004380    2.156648   -0.001783
      7         11           0       -0.074985   -0.053882   -1.943447
 ---------------------------------------------------------------------

 SCF Done:  E(UB3LYP) =  -1136.03851577     A.U. after   19 cycles

 The electronic state is 2-A.
 Alpha  occ. eigenvalues --  -38.44969 -38.44967 -38.44582 -38.44577 -38.44198
 Alpha  occ. eigenvalues --  -38.44187 -38.43796  -2.21241  -2.21234  -2.20995
 Alpha  occ. eigenvalues --   -2.20819  -2.20409  -2.20393  -2.20006  -1.15442
 Alpha  occ. eigenvalues --   -1.15202  -1.15097  -1.15002  -1.14919  -1.14886
 Alpha  occ. eigenvalues --   -1.14876  -1.14706  -1.14654  -1.14420  -1.14359
 Alpha  occ. eigenvalues --   -1.14330  -1.14221  -1.14088  -1.13966  -1.13947
 Alpha  occ. eigenvalues --   -1.13874  -1.13785  -1.13592  -1.13555  -1.13437
 Alpha  occ. eigenvalues --   -0.22659  -0.13677  -0.13357  -0.13279
 Alpha virt. eigenvalues --   -0.05087  -0.03988  -0.03952  -0.03900  -0.03752
 Alpha virt. eigenvalues --   -0.03394  -0.00567  -0.00356  -0.00302   0.00300
 Alpha virt. eigenvalues --    0.01066   0.01101   0.01199   0.01331   0.01334

  Beta  occ. eigenvalues --  -38.44861 -38.44859 -38.44561 -38.44556 -38.44184
  Beta  occ. eigenvalues --  -38.44173 -38.43781  -2.21062  -2.21041  -2.20954
  Beta  occ. eigenvalues --   -2.20792  -2.20392  -2.20375  -2.19987  -1.15414
  Beta  occ. eigenvalues --   -1.15158  -1.14972  -1.14936  -1.14786  -1.14752
  Beta  occ. eigenvalues --   -1.14746  -1.14631  -1.14583  -1.14346  -1.14313
  Beta  occ. eigenvalues --   -1.14228  -1.14207  -1.14079  -1.13891  -1.13873
  Beta  occ. eigenvalues --   -1.13867  -1.13778  -1.13549  -1.13514  -1.13433
  Beta  occ. eigenvalues --   -0.21715  -0.13248  -0.12855
  Beta virt. eigenvalues --   -0.09044  -0.05082  -0.03944  -0.03890  -0.02931
  Beta virt. eigenvalues --   -0.02747  -0.02394  -0.00510  -0.00312  -0.00098
  Beta virt. eigenvalues --    0.00324   0.01048   0.01097   0.01250   0.01385

 Mulliken charges and spin densities:
               1          2
     1  Na   0.014348   0.017433
     2  Na   0.013213   0.017589
     3  Na  -0.006831   0.015413
     4  Na  -0.036125   0.439235
     5  Na  -0.006204   0.015339
     6  Na   0.055573   0.055806
     7  Na  -0.033974   0.439185
 Sum of Mulliken charges =  -0.00000   1.00000

 Dipole moment (field-independent basis, Debye):
    X=              0.0031    Y=              0.3221    Z=              0.0037  Tot=              0.3222
 Quadrupole moment (field-independent basis, Debye-Ang):
   XX=            -66.9708   YY=            -70.6081   ZZ=            -63.8345
   XY=              0.0031   XZ=             -0.2154   YZ=             -0.0052

 Normal termination of Gaussian 16 at Mon Nov 13 20:39:42 2023.
