 Gaussian 16, Revision B.01,
 Gaussian 16:  ES64L-G16RevB.01 20-Dec-2017

 -------------------------
 #P B3LYP/6-311+g(d) force
 -------------------------

 ------------------------------
 Gaussian input prepared by ASE
 ------------------------------
 Symbolic Z-matrix:
 Charge =  0 Multiplicity = 2

                         Standard orientation:
 ---------------------------------------------------------------------
 Center     Atomic      Atomic             Coordinates (Angstroms)
 Number     Number       Type             X           Y           Z
 ---------------------------------------------------------------------
      1         11           0        1.698791   -0.033226    2.107505
      2         11           0       -2.589097    2.117479   -0.721599
      3         11           0       -2.412071   -1.553184    1.723105
      4         11           0       -0.511482    0.095646    0.077843
      5         11           0        1.838667    1.957329   -0.124306
      6         11           0        2.186088   -0.960587   -0.696606
      7         11           0       -0.210896   -1.623458   -2.365941
 ---------------------------------------------------------------------

 SCF Done:  E(UB3LYP) =  -1136.09962837     A.U. after   23 cycles

 The electronic state is 2-A.
 Alpha  occ. eigenvalues --  -38.45089 -38.44954 -38.44531 -38.43971 -38.43052
 Alpha  occ. eigenvalues --  -38.42319 -38.42265  -2.20897  -2.20761  -2.20512
 Alpha  occ. eigenvalues --   -2.19957  -2.19135  -2.18560  -2.18220  -1.14595
 Alpha  occ. eigenvalues --   -1.14516  -1.14504  -1.14460  -1.14385  -1.14368
 Alpha  occ. eigenvalues --   -1.14267  -1.14148  -1.14134  -1.13695  -1.13600
 Alpha  occ. eigenvalues --   -1.13541  -1.12879  -1.12798  -1.12744  -1.12304
 Alpha  occ. eigenvalues --   -1.12243  -1.12206  -1.11882  -1.11847  -1.11835
 Alpha  occ. eigenvalues --   -0.19219  -0.13258  -0.12027  -0.11411
 Alpha virt. eigenvalues --   -0.05741  -0.05172  -0.03978  -0.03412  -0.02726
 Alpha virt. eigenvalues --   -0.02460  -0.01390  -0.01094  -0.00469   0.00261
 Alpha virt. eigenvalues --    0.00311   0.00480   0.00680   0.00708   0.00859

  Beta  occ. eigenvalues --  -38.45028 -38.44897 -38.44502 -38.43946 -38.43048
  Beta  occ. eigenvalues --  -38.42319 -38.42234  -2.20784  -2.20657  -2.20459
  Beta  occ. eigenvalues --   -2.19912  -2.19128  -2.18518  -2.18221  -1.14516
  Beta  occ. eigenvalues --   -1.14439  -1.14425  -1.14387  -1.14314  -1.14293
  Beta  occ. eigenvalues --   -1.14236  -1.14112  -1.14083  -1.13664  -1.13571
  Beta  occ. eigenvalues --   -1.13496  -1.12876  -1.12771  -1.12747  -1.12230
  Beta  occ. eigenvalues --   -1.12195  -1.12161  -1.11881  -1.11845  -1.11832
  Beta  occ. eigenvalues --   -0.18497  -0.12929  -0.11250
  Beta virt. eigenvalues --   -0.08116  -0.04964  -0.04918  -0.03942  -0.03034
  Beta virt. eigenvalues --   -0.02208  -0.01964  -0.01298  -0.00531  -0.00421
  Beta virt. eigenvalues --    0.00348   0.00497   0.00610   0.00703   0.00827

 Mulliken charges and spin densities:
               1          2
     1  Na  -0.062784   0.178701
     2  Na   0.075635   0.420857
     3  Na   0.404921   0.130584
     4  Na  -0.804667   0.684475
     5  Na  -0.228402  -0.205122
     6  Na   0.923285  -0.244865
     7  Na  -0.307988   0.035370
 Sum of Mulliken charges =  -0.00000   1.00000

 Dipole moment (field-independent basis, Debye):
    X=             -0.5310    Y=              0.4529    Z=              0.5004  Tot=              0.8588
 Quadrupole moment (field-independent basis, Debye-Ang):
   XX=            -58.7148   YY=            -64.3677   ZZ=            -68.5835
   XY=              1.5949   XZ=              1.4027   YZ=             -8.0389

 Normal termination of Gaussian 16 at Mon Nov 13 20:10:36 2023.
