 Gaussian 16, Revision B.01,
 Gaussian 16:  ES64L-G16RevB.01 20-Dec-2017

 -------------------------
 #P B3LYP/6-311+g(d) force
 -------------------------

 ------------------------------
 Gaussian input prepared by ASE
 ------------------------------
 Symbolic Z-matrix:
 Charge =  0 Multiplicity = 2

                         Standard orientation:
 ---------------------------------------------------------------------
 Center     Atomic      Atomic             Coordinates (Angstroms)
 Number     Number       Type             X           Y           Z
 ---------------------------------------------------------------------
      1         11           0        1.197502   -2.610633   -0.845688
      2         11           0       -0.879191    2.948724   -1.494192
      3         11           0        1.918326    1.619697    2.237346
      4         11           0        2.760071   -0.190313   -0.001300
      5         11           0        0.138796    0.129636   -1.432798
      6         11           0       -1.228967   -1.603030    0.602202
      7         11           0       -3.906537   -0.294081    0.934430
 ---------------------------------------------------------------------

 SCF Done:  E(UB3LYP) =  -1136.10153761     A.U. after   30 cycles

 The electronic state is 2-A.
 Alpha  occ. eigenvalues --  -38.44589 -38.44458 -38.44355 -38.44183 -38.43888
 Alpha  occ. eigenvalues --  -38.43516 -38.43512  -2.20418  -2.20265  -2.20174
 Alpha  occ. eigenvalues --   -2.20160  -2.19981  -2.19511  -2.19481  -1.14159
 Alpha  occ. eigenvalues --   -1.14050  -1.14015  -1.13976  -1.13967  -1.13906
 Alpha  occ. eigenvalues --   -1.13905  -1.13881  -1.13804  -1.13789  -1.13786
 Alpha  occ. eigenvalues --   -1.13780  -1.13703  -1.13591  -1.13577  -1.13277
 Alpha  occ. eigenvalues --   -1.13154  -1.13143  -1.13136  -1.13099  -1.13025
 Alpha  occ. eigenvalues --   -0.18508  -0.13252  -0.12523  -0.11695
 Alpha virt. eigenvalues --   -0.06062  -0.05066  -0.04326  -0.03434  -0.03237
 Alpha virt. eigenvalues --   -0.02367  -0.01763  -0.01230  -0.00413  -0.00276
 Alpha virt. eigenvalues --    0.00083   0.00161   0.00451   0.00737   0.00811

  Beta  occ. eigenvalues --  -38.44512 -38.44425 -38.44291 -38.44172 -38.43838
  Beta  occ. eigenvalues --  -38.43512 -38.43505  -2.20278  -2.20205  -2.20146
  Beta  occ. eigenvalues --   -2.20058  -2.19892  -2.19505  -2.19470  -1.14066
  Beta  occ. eigenvalues --   -1.13956  -1.13932  -1.13928  -1.13908  -1.13865
  Beta  occ. eigenvalues --   -1.13841  -1.13840  -1.13800  -1.13740  -1.13710
  Beta  occ. eigenvalues --   -1.13706  -1.13640  -1.13534  -1.13524  -1.13264
  Beta  occ. eigenvalues --   -1.13145  -1.13138  -1.13119  -1.13093  -1.13013
  Beta  occ. eigenvalues --   -0.18083  -0.12610  -0.11955
  Beta virt. eigenvalues --   -0.08144  -0.05881  -0.04905  -0.03854  -0.03131
  Beta virt. eigenvalues --   -0.02798  -0.01744  -0.01637  -0.01042  -0.00201
  Beta virt. eigenvalues --   -0.00085   0.00175   0.00273   0.00549   0.00770

 Mulliken charges and spin densities:
               1          2
     1  Na   3.980452   0.046072
     2  Na   0.094409   0.222900
     3  Na   0.281295   0.186496
     4  Na  -1.029707   0.331362
     5  Na  -1.537607  -0.257899
     6  Na  -1.640910   0.424457
     7  Na  -0.147932   0.046612
 Sum of Mulliken charges =  -0.00000   1.00000

 Dipole moment (field-independent basis, Debye):
    X=             -0.1833    Y=              0.3679    Z=              0.4417  Tot=              0.6034
 Quadrupole moment (field-independent basis, Debye-Ang):
   XX=            -62.2577   YY=            -65.2159   ZZ=            -68.5889
   XY=             -5.8255   XZ=             -1.6699   YZ=              2.0051

 Normal termination of Gaussian 16 at Mon Nov 13 15:25:13 2023.
