 Gaussian 16, Revision B.01,
 Gaussian 16:  ES64L-G16RevB.01 20-Dec-2017

 -------------------------
 #P B3LYP/6-311+g(d) force
 -------------------------

 ------------------------------
 Gaussian input prepared by ASE
 ------------------------------
 Symbolic Z-matrix:
 Charge =  0 Multiplicity = 2

                         Standard orientation:
 ---------------------------------------------------------------------
 Center     Atomic      Atomic             Coordinates (Angstroms)
 Number     Number       Type             X           Y           Z
 ---------------------------------------------------------------------
      1         11           0       -1.219432   -1.322401   -0.957445
      2         11           0       -0.051566   -0.834860    1.752785
      3         11           0       -4.022544   -0.534190   -0.252056
      4         11           0       -1.738607    1.277424    0.440106
      5         11           0        0.899133    2.509307   -0.300542
      6         11           0        1.620632   -0.381304   -0.700477
      7         11           0        4.512384   -0.713977    0.017630
 ---------------------------------------------------------------------

 SCF Done:  E(UB3LYP) =  -1136.09110162     A.U. after   27 cycles

 The electronic state is 2-A.
 Alpha  occ. eigenvalues --  -38.45290 -38.44664 -38.44621 -38.44146 -38.43460
 Alpha  occ. eigenvalues --  -38.43350 -38.43209  -2.21299  -2.20668  -2.20495
 Alpha  occ. eigenvalues --   -2.20071  -2.19532  -2.19444  -2.19129  -1.15037
 Alpha  occ. eigenvalues --   -1.14940  -1.14872  -1.14400  -1.14361  -1.14305
 Alpha  occ. eigenvalues --   -1.14177  -1.14118  -1.14107  -1.13768  -1.13700
 Alpha  occ. eigenvalues --   -1.13668  -1.13253  -1.13210  -1.13192  -1.13150
 Alpha  occ. eigenvalues --   -1.13140  -1.13081  -1.12780  -1.12748  -1.12723
 Alpha  occ. eigenvalues --   -0.19738  -0.14584  -0.11647  -0.11196
 Alpha virt. eigenvalues --   -0.07599  -0.04805  -0.03906  -0.03475  -0.03223
 Alpha virt. eigenvalues --   -0.01952  -0.01756  -0.01427  -0.00826  -0.00623
 Alpha virt. eigenvalues --   -0.00007   0.00272   0.00367   0.00710   0.00824

  Beta  occ. eigenvalues --  -38.45198 -38.44632 -38.44577 -38.44089 -38.43453
  Beta  occ. eigenvalues --  -38.43353 -38.43186  -2.21131  -2.20698  -2.20335
  Beta  occ. eigenvalues --   -2.19964  -2.19534  -2.19458  -2.19086  -1.14914
  Beta  occ. eigenvalues --   -1.14841  -1.14763  -1.14409  -1.14391  -1.14274
  Beta  occ. eigenvalues --   -1.14073  -1.14008  -1.13996  -1.13700  -1.13638
  Beta  occ. eigenvalues --   -1.13590  -1.13238  -1.13186  -1.13159  -1.13142
  Beta  occ. eigenvalues --   -1.13125  -1.13084  -1.12751  -1.12717  -1.12701
  Beta  occ. eigenvalues --   -0.19167  -0.13711  -0.11419
  Beta virt. eigenvalues --   -0.07630  -0.07480  -0.04384  -0.03402  -0.03128
  Beta virt. eigenvalues --   -0.03023  -0.01770  -0.01450  -0.01015  -0.00587
  Beta virt. eigenvalues --   -0.00246   0.00176   0.00362   0.00558   0.00786

 Mulliken charges and spin densities:
               1          2
     1  Na   0.559785   0.480222
     2  Na  -0.118704  -0.070713
     3  Na   0.125075  -0.045298
     4  Na  -0.445705   0.302664
     5  Na   0.147859   0.030702
     6  Na  -0.274264   0.266781
     7  Na   0.005955   0.035643
 Sum of Mulliken charges =  -0.00000   1.00000

 Dipole moment (field-independent basis, Debye):
    X=             -0.2026    Y=             -0.1799    Z=              1.1420  Tot=              1.1737
 Quadrupole moment (field-independent basis, Debye-Ang):
   XX=            -60.7033   YY=            -75.5625   ZZ=            -64.4996
   XY=              2.5504   XZ=              0.7917   YZ=             -0.6818

 Normal termination of Gaussian 16 at Mon Nov 13 16:20:35 2023.
