 Gaussian 16, Revision B.01,
 Gaussian 16:  ES64L-G16RevB.01 20-Dec-2017

 -------------------------
 #P B3LYP/6-311+g(d) force
 -------------------------

 ------------------------------
 Gaussian input prepared by ASE
 ------------------------------
 Symbolic Z-matrix:
 Charge =  0 Multiplicity = 2

                         Standard orientation:
 ---------------------------------------------------------------------
 Center     Atomic      Atomic             Coordinates (Angstroms)
 Number     Number       Type             X           Y           Z
 ---------------------------------------------------------------------
      1         11           0       -0.000282   -0.017213    2.043224
      2         11           0        0.157720   -2.390130    0.211108
      3         11           0        2.691595   -1.263918   -0.928638
      4         11           0        2.046842    1.373610    0.343202
      5         11           0       -0.188638    2.776268   -1.081356
      6         11           0       -2.217883    1.103691    0.360038
      7         11           0       -2.489354   -1.582308   -0.947578
 ---------------------------------------------------------------------

 SCF Done:  E(UB3LYP) =  -1136.11093183     A.U. after   17 cycles

 The electronic state is 2-A.
 Alpha  occ. eigenvalues --  -38.44300 -38.44275 -38.44154 -38.44148 -38.43936
 Alpha  occ. eigenvalues --  -38.43909 -38.43764  -2.20188  -2.20173  -2.20163
 Alpha  occ. eigenvalues --   -2.20044  -2.19910  -2.19883  -2.19735  -1.13916
 Alpha  occ. eigenvalues --   -1.13907  -1.13894  -1.13888  -1.13864  -1.13859
 Alpha  occ. eigenvalues --   -1.13843  -1.13805  -1.13794  -1.13780  -1.13772
 Alpha  occ. eigenvalues --   -1.13660  -1.13551  -1.13526  -1.13524  -1.13503
 Alpha  occ. eigenvalues --   -1.13474  -1.13455  -1.13396  -1.13372  -1.13338
 Alpha  occ. eigenvalues --   -0.19231  -0.13487  -0.13201  -0.11151
 Alpha virt. eigenvalues --   -0.05664  -0.05618  -0.04408  -0.03660  -0.03526
 Alpha virt. eigenvalues --   -0.02398  -0.00955  -0.00757  -0.00424  -0.00318
 Alpha virt. eigenvalues --    0.00139   0.00448   0.00741   0.00759   0.00919

  Beta  occ. eigenvalues --  -38.44280 -38.44255 -38.44131 -38.44033 -38.43925
  Beta  occ. eigenvalues --  -38.43898 -38.43753  -2.20151  -2.20126  -2.20000
  Beta  occ. eigenvalues --   -2.19964  -2.19895  -2.19868  -2.19722  -1.13892
  Beta  occ. eigenvalues --   -1.13884  -1.13871  -1.13846  -1.13781  -1.13778
  Beta  occ. eigenvalues --   -1.13766  -1.13747  -1.13737  -1.13731  -1.13710
  Beta  occ. eigenvalues --   -1.13625  -1.13513  -1.13491  -1.13476  -1.13472
  Beta  occ. eigenvalues --   -1.13451  -1.13440  -1.13364  -1.13335  -1.13333
  Beta  occ. eigenvalues --   -0.18540  -0.13200  -0.12918
  Beta virt. eigenvalues --   -0.07442  -0.05465  -0.05431  -0.04237  -0.02954
  Beta virt. eigenvalues --   -0.02838  -0.01546  -0.00891  -0.00700  -0.00250
  Beta virt. eigenvalues --   -0.00243   0.00278   0.00524   0.00782   0.00801

 Mulliken charges and spin densities:
               1          2
     1  Na  -0.500924   0.443669
     2  Na   0.048596   0.198509
     3  Na  -0.011926  -0.041738
     4  Na   0.331980   0.185152
     5  Na  -0.194258   0.061528
     6  Na   0.354015   0.187582
     7  Na  -0.027483  -0.034702
 Sum of Mulliken charges =  -0.00000   1.00000

 Dipole moment (field-independent basis, Debye):
    X=              0.0061    Y=             -0.0287    Z=             -0.5432  Tot=              0.5440
 Quadrupole moment (field-independent basis, Debye-Ang):
   XX=            -62.8320   YY=            -66.0897   ZZ=            -69.9042
   XY=              0.0063   XZ=             -0.0441   YZ=              0.2331

 Normal termination of Gaussian 16 at Mon Nov 13 16:07:13 2023.
