 Gaussian 16, Revision B.01,
 Gaussian 16:  ES64L-G16RevB.01 20-Dec-2017

 -------------------------
 #P B3LYP/6-311+g(d) force
 -------------------------

 ------------------------------
 Gaussian input prepared by ASE
 ------------------------------
 Symbolic Z-matrix:
 Charge =  0 Multiplicity = 2

                         Standard orientation:
 ---------------------------------------------------------------------
 Center     Atomic      Atomic             Coordinates (Angstroms)
 Number     Number       Type             X           Y           Z
 ---------------------------------------------------------------------
      1         11           0        0.844584   -0.982268   -0.631317
      2         11           0        5.485264   -0.581675   -0.697511
      3         11           0        3.163295   -0.460411    1.199643
      4         11           0        1.527063    1.828827    0.156771
      5         11           0       -1.316508    1.087834   -0.437709
      6         11           0       -3.497639   -0.524895    0.846992
      7         11           0       -6.206059   -0.367412   -0.436869
 ---------------------------------------------------------------------

 SCF Done:  E(UB3LYP) =  -1136.09489573     A.U. after   24 cycles

 The electronic state is 2-A.
 Alpha  occ. eigenvalues --  -38.45124 -38.44602 -38.44387 -38.44328 -38.44037
 Alpha  occ. eigenvalues --  -38.44031 -38.43416  -2.20908  -2.20574  -2.20365
 Alpha  occ. eigenvalues --   -2.20135  -2.20040  -2.19909  -2.19437  -1.14633
 Alpha  occ. eigenvalues --   -1.14563  -1.14557  -1.14313  -1.14236  -1.14171
 Alpha  occ. eigenvalues --   -1.14121  -1.14065  -1.14009  -1.13860  -1.13778
 Alpha  occ. eigenvalues --   -1.13775  -1.13730  -1.13690  -1.13614  -1.13585
 Alpha  occ. eigenvalues --   -1.13542  -1.13498  -1.13104  -1.13059  -1.13031
 Alpha  occ. eigenvalues --   -0.18248  -0.14673  -0.12173  -0.09993
 Alpha virt. eigenvalues --   -0.07075  -0.06065  -0.04059  -0.03464  -0.03191
 Alpha virt. eigenvalues --   -0.02393  -0.01854  -0.01500  -0.00759  -0.00464
 Alpha virt. eigenvalues --   -0.00341   0.00169   0.00398   0.00431   0.00462

  Beta  occ. eigenvalues --  -38.45141 -38.44582 -38.44368 -38.44307 -38.44030
  Beta  occ. eigenvalues --  -38.43978 -38.43340  -2.20941  -2.20543  -2.20337
  Beta  occ. eigenvalues --   -2.20095  -2.19935  -2.19910  -2.19297  -1.14654
  Beta  occ. eigenvalues --   -1.14586  -1.14573  -1.14300  -1.14164  -1.14156
  Beta  occ. eigenvalues --   -1.14107  -1.14017  -1.13974  -1.13837  -1.13750
  Beta  occ. eigenvalues --   -1.13747  -1.13658  -1.13611  -1.13584  -1.13542
  Beta  occ. eigenvalues --   -1.13536  -1.13479  -1.13004  -1.12962  -1.12934
  Beta  occ. eigenvalues --   -0.17600  -0.14459  -0.11996
  Beta virt. eigenvalues --   -0.06979  -0.06153  -0.05754  -0.03870  -0.03103
  Beta virt. eigenvalues --   -0.02972  -0.02071  -0.01487  -0.01130  -0.00697
  Beta virt. eigenvalues --   -0.00095   0.00017   0.00309   0.00478   0.00508

 Mulliken charges and spin densities:
               1          2
     1  Na  -0.194473   0.489714
     2  Na   0.019368  -0.174277
     3  Na   0.235457   0.320615
     4  Na   0.027455   0.513180
     5  Na  -0.159498  -0.230769
     6  Na  -0.352345  -0.036122
     7  Na   0.424036   0.117657
 Sum of Mulliken charges =  -0.00000   1.00000

 Dipole moment (field-independent basis, Debye):
    X=              0.7145    Y=             -0.2924    Z=             -0.6921  Tot=              1.0369
 Quadrupole moment (field-independent basis, Debye-Ang):
   XX=            -52.2881   YY=            -77.4017   ZZ=            -64.9015
   XY=             -1.8503   XZ=             -1.0605   YZ=             -2.4295

 Normal termination of Gaussian 16 at Mon Nov 13 14:54:33 2023.
