 Gaussian 16, Revision B.01,
 Gaussian 16:  ES64L-G16RevB.01 20-Dec-2017

 -------------------------
 #P B3LYP/6-311+g(d) force
 -------------------------

 ------------------------------
 Gaussian input prepared by ASE
 ------------------------------
 Symbolic Z-matrix:
 Charge =  0 Multiplicity = 2

                         Standard orientation:
 ---------------------------------------------------------------------
 Center     Atomic      Atomic             Coordinates (Angstroms)
 Number     Number       Type             X           Y           Z
 ---------------------------------------------------------------------
      1         11           0       -2.433180    0.516691   -1.311636
      2         11           0       -2.761794   -2.076339    0.159933
      3         11           0       -1.328196    2.923105    0.103210
      4         11           0       -1.574516    0.304230    1.546928
      5         11           0       -0.019535   -1.121430   -0.587879
      6         11           0        2.857368   -1.138645    0.274277
      7         11           0        5.259853    0.592388   -0.184832
 ---------------------------------------------------------------------

 SCF Done:  E(UB3LYP) =  -1136.08980253     A.U. after   26 cycles

 The electronic state is 2-A.
 Alpha  occ. eigenvalues --  -38.45334 -38.44470 -38.44369 -38.44240 -38.43836
 Alpha  occ. eigenvalues --  -38.43315 -38.43031  -2.21418  -2.20572  -2.20447
 Alpha  occ. eigenvalues --   -2.20071  -2.19834  -2.19196  -2.18947  -1.15177
 Alpha  occ. eigenvalues --   -1.15082  -1.15046  -1.14371  -1.14243  -1.14185
 Alpha  occ. eigenvalues --   -1.14099  -1.14097  -1.14046  -1.13753  -1.13695
 Alpha  occ. eigenvalues --   -1.13691  -1.13518  -1.13474  -1.13441  -1.12909
 Alpha  occ. eigenvalues --   -1.12837  -1.12825  -1.12636  -1.12611  -1.12561
 Alpha  occ. eigenvalues --   -0.19514  -0.14001  -0.12336  -0.10628
 Alpha virt. eigenvalues --   -0.07824  -0.04790  -0.04163  -0.02954  -0.02761
 Alpha virt. eigenvalues --   -0.02515  -0.01989  -0.01418  -0.00823  -0.00638
 Alpha virt. eigenvalues --   -0.00258   0.00005   0.00274   0.00524   0.00986

  Beta  occ. eigenvalues --  -38.45304 -38.44422 -38.44321 -38.44163 -38.43827
  Beta  occ. eigenvalues --  -38.43312 -38.43030  -2.21367  -2.20487  -2.20367
  Beta  occ. eigenvalues --   -2.19925  -2.19824  -2.19199  -2.18947  -1.15146
  Beta  occ. eigenvalues --   -1.15046  -1.14982  -1.14311  -1.14189  -1.14109
  Beta  occ. eigenvalues --   -1.14061  -1.14003  -1.13985  -1.13660  -1.13595
  Beta  occ. eigenvalues --   -1.13592  -1.13523  -1.13459  -1.13399  -1.12879
  Beta  occ. eigenvalues --   -1.12842  -1.12804  -1.12635  -1.12606  -1.12556
  Beta  occ. eigenvalues --   -0.18946  -0.13288  -0.12129
  Beta virt. eigenvalues --   -0.07591  -0.06978  -0.04508  -0.03907  -0.02621
  Beta virt. eigenvalues --   -0.02511  -0.02239  -0.01615  -0.01107  -0.00576
  Beta virt. eigenvalues --   -0.00224  -0.00080   0.00167   0.00439   0.00581

 Mulliken charges and spin densities:
               1          2
     1  Na  -0.086162   0.254603
     2  Na   0.472863   0.082270
     3  Na   0.017335  -0.129495
     4  Na  -0.132149   0.483133
     5  Na  -0.176116  -0.013338
     6  Na   0.146221  -0.076601
     7  Na  -0.241992   0.399428
 Sum of Mulliken charges =  -0.00000   1.00000

 Dipole moment (field-independent basis, Debye):
    X=             -1.0916    Y=              0.2930    Z=              0.4687  Tot=              1.2236
 Quadrupole moment (field-independent basis, Debye-Ang):
   XX=            -68.9983   YY=            -69.2931   ZZ=            -64.3757
   XY=              5.8525   XZ=             -3.8026   YZ=             -1.5305

 Normal termination of Gaussian 16 at Mon Nov 13 16:12:07 2023.
