 Gaussian 16, Revision B.01,
 Gaussian 16:  ES64L-G16RevB.01 20-Dec-2017

 -------------------------
 #P B3LYP/6-311+g(d) force
 -------------------------

 ------------------------------
 Gaussian input prepared by ASE
 ------------------------------
 Symbolic Z-matrix:
 Charge =  0 Multiplicity = 2

                         Standard orientation:
 ---------------------------------------------------------------------
 Center     Atomic      Atomic             Coordinates (Angstroms)
 Number     Number       Type             X           Y           Z
 ---------------------------------------------------------------------
      1         11           0       -0.921274   -0.630548    1.493239
      2         11           0       -0.504885   -0.406901   -1.465269
      3         11           0       -3.273869   -0.782022   -0.366278
      4         11           0       -1.839315    1.820405    0.032424
      5         11           0        1.093173    1.312000    0.406376
      6         11           0        1.625200   -1.632299    0.256805
      7         11           0        3.820970    0.319365   -0.357296
 ---------------------------------------------------------------------

 SCF Done:  E(UB3LYP) =  -1136.08367548     A.U. after   28 cycles

 The electronic state is 2-A.
 Alpha  occ. eigenvalues --  -38.45630 -38.45030 -38.44932 -38.43385 -38.43248
 Alpha  occ. eigenvalues --  -38.42869 -38.42751  -2.21516  -2.21073  -2.21009
 Alpha  occ. eigenvalues --   -2.19590  -2.19316  -2.18954  -2.18912  -1.15210
 Alpha  occ. eigenvalues --   -1.15169  -1.15133  -1.14867  -1.14848  -1.14694
 Alpha  occ. eigenvalues --   -1.14679  -1.14621  -1.14565  -1.13386  -1.13280
 Alpha  occ. eigenvalues --   -1.13167  -1.13046  -1.12951  -1.12920  -1.12744
 Alpha  occ. eigenvalues --   -1.12615  -1.12589  -1.12580  -1.12536  -1.12444
 Alpha  occ. eigenvalues --   -0.20690  -0.15311  -0.11276  -0.11127
 Alpha virt. eigenvalues --   -0.07745  -0.04661  -0.04161  -0.03259  -0.02863
 Alpha virt. eigenvalues --   -0.01800  -0.01726  -0.00900  -0.00688  -0.00087
 Alpha virt. eigenvalues --    0.00130   0.00391   0.00468   0.00852   0.00856

  Beta  occ. eigenvalues --  -38.45602 -38.44994 -38.44904 -38.43302 -38.43232
  Beta  occ. eigenvalues --  -38.42854 -38.42718  -2.21463  -2.21025  -2.20945
  Beta  occ. eigenvalues --   -2.19444  -2.19292  -2.18935  -2.18865  -1.15179
  Beta  occ. eigenvalues --   -1.15132  -1.15090  -1.14830  -1.14785  -1.14653
  Beta  occ. eigenvalues --   -1.14644  -1.14564  -1.14526  -1.13282  -1.13186
  Beta  occ. eigenvalues --   -1.13054  -1.13026  -1.12939  -1.12853  -1.12714
  Beta  occ. eigenvalues --   -1.12605  -1.12569  -1.12530  -1.12445  -1.12404
  Beta  occ. eigenvalues --   -0.19927  -0.14876  -0.10880
  Beta virt. eigenvalues --   -0.07577  -0.07212  -0.04599  -0.03462  -0.03002
  Beta virt. eigenvalues --   -0.02713  -0.01208  -0.01005  -0.00833  -0.00324
  Beta virt. eigenvalues --    0.00005   0.00196   0.00417   0.00655   0.00882

 Mulliken charges and spin densities:
               1          2
     1  Na   0.251639   0.152823
     2  Na  -0.157159   0.220553
     3  Na   0.304950   0.232703
     4  Na  -0.151894   0.036926
     5  Na  -0.891994   0.004545
     6  Na   0.372544   0.168819
     7  Na   0.271915   0.183630
 Sum of Mulliken charges =  -0.00000   1.00000

 Dipole moment (field-independent basis, Debye):
    X=              0.3843    Y=             -0.2284    Z=              0.1327  Tot=              0.4663
 Quadrupole moment (field-independent basis, Debye-Ang):
   XX=            -44.5740   YY=            -79.1329   ZZ=            -69.5384
   XY=              0.1063   XZ=             -1.9153   YZ=             -0.1669

 Normal termination of Gaussian 16 at Mon Nov 13 18:17:58 2023.
