 Gaussian 16, Revision B.01,
 Gaussian 16:  ES64L-G16RevB.01 20-Dec-2017

 -------------------------
 #P B3LYP/6-311+g(d) force
 -------------------------

 ------------------------------
 Gaussian input prepared by ASE
 ------------------------------
 Symbolic Z-matrix:
 Charge =  0 Multiplicity = 2

                         Standard orientation:
 ---------------------------------------------------------------------
 Center     Atomic      Atomic             Coordinates (Angstroms)
 Number     Number       Type             X           Y           Z
 ---------------------------------------------------------------------
      1         11           0       -0.035014   -0.002626    1.558243
      2         11           0       -2.200293   -1.442139    0.001172
      3         11           0       -2.193183    1.454253   -0.001192
      4         11           0       -0.034515   -0.000724   -1.558211
      5         11           0        0.959657    2.405015    0.001092
      6         11           0        2.557483   -0.005389    0.000459
      7         11           0        0.945865   -2.408390   -0.001563
 ---------------------------------------------------------------------

 SCF Done:  E(UB3LYP) =  -1136.10641142     A.U. after   17 cycles

 The electronic state is 2-A.
 Alpha  occ. eigenvalues --  -38.43700 -38.43574 -38.43571 -38.43285 -38.43283
 Alpha  occ. eigenvalues --  -38.43123 -38.43123  -2.19793  -2.19628  -2.19595
 Alpha  occ. eigenvalues --   -2.19389  -2.19370  -2.19326  -2.19317  -1.13623
 Alpha  occ. eigenvalues --   -1.13557  -1.13553  -1.13439  -1.13342  -1.13330
 Alpha  occ. eigenvalues --   -1.13310  -1.13252  -1.13149  -1.13122  -1.13098
 Alpha  occ. eigenvalues --   -1.13068  -1.13025  -1.12986  -1.12954  -1.12947
 Alpha  occ. eigenvalues --   -1.12914  -1.12911  -1.12899  -1.12859  -1.12851
 Alpha  occ. eigenvalues --   -0.21000  -0.13805  -0.13175  -0.11250
 Alpha virt. eigenvalues --   -0.05139  -0.04785  -0.04451  -0.03313  -0.02870
 Alpha virt. eigenvalues --   -0.02128  -0.01104  -0.00909   0.00052   0.00338
 Alpha virt. eigenvalues --    0.00420   0.00492   0.00977   0.01041   0.01075

  Beta  occ. eigenvalues --  -38.43687 -38.43563 -38.43561 -38.43274 -38.43272
  Beta  occ. eigenvalues --  -38.43041 -38.43040  -2.19777  -2.19614  -2.19581
  Beta  occ. eigenvalues --   -2.19312  -2.19311  -2.19232  -2.19220  -1.13607
  Beta  occ. eigenvalues --   -1.13550  -1.13543  -1.13372  -1.13331  -1.13312
  Beta  occ. eigenvalues --   -1.13250  -1.13192  -1.13112  -1.13101  -1.13075
  Beta  occ. eigenvalues --   -1.12988  -1.12951  -1.12946  -1.12917  -1.12895
  Beta  occ. eigenvalues --   -1.12854  -1.12842  -1.12828  -1.12783  -1.12775
  Beta  occ. eigenvalues --   -0.20230  -0.13441  -0.12840
  Beta virt. eigenvalues --   -0.07141  -0.05174  -0.04766  -0.04450  -0.02364
  Beta virt. eigenvalues --   -0.02002  -0.01079  -0.01028  -0.00859   0.00167
  Beta virt. eigenvalues --    0.00367   0.00372   0.00452   0.01007   0.01054

 Mulliken charges and spin densities:
               1          2
     1  Na  -0.863910   0.519114
     2  Na   0.325999  -0.023672
     3  Na   0.321714  -0.024153
     4  Na  -0.864156   0.519188
     5  Na   0.367488  -0.017278
     6  Na   0.338414   0.043249
     7  Na   0.374451  -0.016448
 Sum of Mulliken charges =  -0.00000   1.00000

 Dipole moment (field-independent basis, Debye):
    X=             -0.1497    Y=              0.0032    Z=              0.0000  Tot=              0.1498
 Quadrupole moment (field-independent basis, Debye-Ang):
   XX=            -59.3301   YY=            -62.0668   ZZ=            -73.3852
   XY=             -0.0002   XZ=              0.0012   YZ=              0.0038

 Normal termination of Gaussian 16 at Mon Nov 13 20:15:18 2023.
