 Gaussian 16, Revision B.01,
 Gaussian 16:  ES64L-G16RevB.01 20-Dec-2017

 -------------------------
 #P B3LYP/6-311+g(d) force
 -------------------------

 ------------------------------
 Gaussian input prepared by ASE
 ------------------------------
 Symbolic Z-matrix:
 Charge =  0 Multiplicity = 2

                         Standard orientation:
 ---------------------------------------------------------------------
 Center     Atomic      Atomic             Coordinates (Angstroms)
 Number     Number       Type             X           Y           Z
 ---------------------------------------------------------------------
      1         11           0       -0.000605   -0.002524   -1.033785
      2         11           0       -1.631252    2.407831   -0.272023
      3         11           0       -2.552568   -1.561943   -0.759836
      4         11           0       -1.500202    0.033864    1.552156
      5         11           0        1.637310   -2.410391   -0.275264
      6         11           0        1.503629   -0.036810    1.548944
      7         11           0        2.543687    1.569974   -0.760193
 ---------------------------------------------------------------------

 SCF Done:  E(UB3LYP) =  -1136.10687135     A.U. after   18 cycles

 The electronic state is 2-A.
 Alpha  occ. eigenvalues --  -38.44101 -38.44095 -38.43826 -38.43825 -38.43537
 Alpha  occ. eigenvalues --  -38.43535 -38.42667  -2.19997  -2.19990  -2.19719
 Alpha  occ. eigenvalues --   -2.19717  -2.19634  -2.19619  -2.18981  -1.13756
 Alpha  occ. eigenvalues --   -1.13736  -1.13693  -1.13683  -1.13577  -1.13570
 Alpha  occ. eigenvalues --   -1.13531  -1.13522  -1.13459  -1.13425  -1.13407
 Alpha  occ. eigenvalues --   -1.13304  -1.13303  -1.13259  -1.13257  -1.13196
 Alpha  occ. eigenvalues --   -1.13156  -1.13147  -1.12667  -1.12612  -1.12570
 Alpha  occ. eigenvalues --   -0.19747  -0.13611  -0.11967  -0.11327
 Alpha virt. eigenvalues --   -0.05665  -0.04995  -0.03835  -0.03421  -0.02572
 Alpha virt. eigenvalues --   -0.02409  -0.01528  -0.01158  -0.00247   0.00368
 Alpha virt. eigenvalues --    0.00400   0.00470   0.00620   0.00866   0.01103

  Beta  occ. eigenvalues --  -38.44083 -38.44077 -38.43822 -38.43821 -38.43474
  Beta  occ. eigenvalues --  -38.43472 -38.42619  -2.19965  -2.19958  -2.19713
  Beta  occ. eigenvalues --   -2.19712  -2.19523  -2.19509  -2.18901  -1.13734
  Beta  occ. eigenvalues --   -1.13715  -1.13653  -1.13643  -1.13556  -1.13550
  Beta  occ. eigenvalues --   -1.13508  -1.13502  -1.13397  -1.13387  -1.13378
  Beta  occ. eigenvalues --   -1.13300  -1.13298  -1.13199  -1.13171  -1.13124
  Beta  occ. eigenvalues --   -1.13094  -1.13052  -1.12578  -1.12554  -1.12514
  Beta  occ. eigenvalues --   -0.18984  -0.13440  -0.11692
  Beta virt. eigenvalues --   -0.07182  -0.05627  -0.04890  -0.03312  -0.03159
  Beta virt. eigenvalues --   -0.01960  -0.01443  -0.01333  -0.01080   0.00030
  Beta virt. eigenvalues --    0.00406   0.00409   0.00473   0.00653   0.00915

 Mulliken charges and spin densities:
               1          2
     1  Na  -1.379430  -0.129440
     2  Na  -0.174365   0.182507
     3  Na   0.382412   0.124285
     4  Na   0.482715   0.258732
     5  Na  -0.175915   0.182588
     6  Na   0.479721   0.258071
     7  Na   0.384862   0.123257
 Sum of Mulliken charges =  -0.00000   1.00000

 Dipole moment (field-independent basis, Debye):
    X=             -0.0039    Y=              0.0002    Z=             -0.2245  Tot=              0.2245
 Quadrupole moment (field-independent basis, Debye-Ang):
   XX=            -56.4822   YY=            -64.2677   ZZ=            -70.6786
   XY=              0.1370   XZ=              0.0028   YZ=              0.0120

 Normal termination of Gaussian 16 at Mon Nov 13 18:30:35 2023.
