 Gaussian 16, Revision B.01,
 Gaussian 16:  ES64L-G16RevB.01 20-Dec-2017

 -------------------------
 #P B3LYP/6-311+g(d) force
 -------------------------

 ------------------------------
 Gaussian input prepared by ASE
 ------------------------------
 Symbolic Z-matrix:
 Charge =  0 Multiplicity = 2

                         Standard orientation:
 ---------------------------------------------------------------------
 Center     Atomic      Atomic             Coordinates (Angstroms)
 Number     Number       Type             X           Y           Z
 ---------------------------------------------------------------------
      1         11           0       -0.913063    0.137307    1.544857
      2         11           0        0.351641    2.514164    0.202081
      3         11           0        4.306341   -0.213355   -0.431538
      4         11           0        1.667861   -1.128092    0.649592
      5         11           0       -0.272639    0.011738   -1.348700
      6         11           0       -2.086622   -2.059434   -0.139786
      7         11           0       -3.053520    0.737672   -0.476506
 ---------------------------------------------------------------------

 SCF Done:  E(UB3LYP) =  -1136.09714819     A.U. after   28 cycles

 The electronic state is 2-A.
 Alpha  occ. eigenvalues --  -38.45036 -38.44708 -38.44599 -38.43472 -38.43202
 Alpha  occ. eigenvalues --  -38.43097 -38.42630  -2.20872  -2.20847  -2.20602
 Alpha  occ. eigenvalues --   -2.19690  -2.19198  -2.19104  -2.18559  -1.14648
 Alpha  occ. eigenvalues --   -1.14589  -1.14539  -1.14504  -1.14479  -1.14464
 Alpha  occ. eigenvalues --   -1.14315  -1.14245  -1.14173  -1.13424  -1.13365
 Alpha  occ. eigenvalues --   -1.13286  -1.12920  -1.12856  -1.12802  -1.12780
 Alpha  occ. eigenvalues --   -1.12753  -1.12706  -1.12272  -1.12231  -1.12136
 Alpha  occ. eigenvalues --   -0.20014  -0.14157  -0.11774  -0.10984
 Alpha virt. eigenvalues --   -0.07417  -0.04370  -0.03812  -0.03156  -0.02847
 Alpha virt. eigenvalues --   -0.02119  -0.01948  -0.01045  -0.00655  -0.00212
 Alpha virt. eigenvalues --    0.00060   0.00305   0.00442   0.00783   0.00887

  Beta  occ. eigenvalues --  -38.44988 -38.44682 -38.44566 -38.43396 -38.43176
  Beta  occ. eigenvalues --  -38.43088 -38.42623  -2.20828  -2.20757  -2.20543
  Beta  occ. eigenvalues --   -2.19556  -2.19160  -2.19092  -2.18550  -1.14608
  Beta  occ. eigenvalues --   -1.14528  -1.14482  -1.14480  -1.14417  -1.14402
  Beta  occ. eigenvalues --   -1.14281  -1.14188  -1.14132  -1.13328  -1.13273
  Beta  occ. eigenvalues --   -1.13180  -1.12897  -1.12796  -1.12777  -1.12755
  Beta  occ. eigenvalues --   -1.12748  -1.12652  -1.12266  -1.12203  -1.12135
  Beta  occ. eigenvalues --   -0.19348  -0.13643  -0.11529
  Beta virt. eigenvalues --   -0.07273  -0.07000  -0.04299  -0.03390  -0.02963
  Beta virt. eigenvalues --   -0.02587  -0.01562  -0.01204  -0.00854  -0.00426
  Beta virt. eigenvalues --   -0.00053   0.00145   0.00369   0.00609   0.00819

 Mulliken charges and spin densities:
               1          2
     1  Na  -0.327072   0.373759
     2  Na  -0.025408  -0.161978
     3  Na   0.071714   0.288684
     4  Na   0.144026  -0.169778
     5  Na  -1.064729   0.445753
     6  Na   0.483395   0.054781
     7  Na   0.718074   0.168779
 Sum of Mulliken charges =  -0.00000   1.00000

 Dipole moment (field-independent basis, Debye):
    X=              0.0308    Y=              0.5840    Z=              0.1220  Tot=              0.5974
 Quadrupole moment (field-independent basis, Debye-Ang):
   XX=            -52.7304   YY=            -71.5544   ZZ=            -70.0477
   XY=              1.8464   XZ=             -2.2458   YZ=              0.0147

 Normal termination of Gaussian 16 at Mon Nov 13 17:33:48 2023.
