 Gaussian 16, Revision B.01,
 Gaussian 16:  ES64L-G16RevB.01 20-Dec-2017

 -------------------------
 #P B3LYP/6-311+g(d) force
 -------------------------

 ------------------------------
 Gaussian input prepared by ASE
 ------------------------------
 Symbolic Z-matrix:
 Charge =  0 Multiplicity = 2

                         Standard orientation:
 ---------------------------------------------------------------------
 Center     Atomic      Atomic             Coordinates (Angstroms)
 Number     Number       Type             X           Y           Z
 ---------------------------------------------------------------------
      1         11           0        1.685277   -0.745617   -1.701239
      2         11           0        0.402424   -0.612264    2.036714
      3         11           0        2.480495    1.015740    0.600029
      4         11           0        0.202175    2.754321   -0.293643
      5         11           0        0.138919   -2.722287   -0.069125
      6         11           0       -0.987952    0.007082   -0.551530
      7         11           0       -3.921338    0.303024   -0.021205
 ---------------------------------------------------------------------

 SCF Done:  E(UB3LYP) =  -1136.10550555     A.U. after   21 cycles

 The electronic state is 2-A.
 Alpha  occ. eigenvalues --  -38.44492 -38.44351 -38.44124 -38.43964 -38.43846
 Alpha  occ. eigenvalues --  -38.43452 -38.42601  -2.20369  -2.20276  -2.20143
 Alpha  occ. eigenvalues --   -2.19860  -2.19843  -2.19437  -2.18797  -1.14081
 Alpha  occ. eigenvalues --   -1.14041  -1.13981  -1.13968  -1.13922  -1.13909
 Alpha  occ. eigenvalues --   -1.13865  -1.13840  -1.13751  -1.13636  -1.13568
 Alpha  occ. eigenvalues --   -1.13507  -1.13475  -1.13460  -1.13363  -1.13156
 Alpha  occ. eigenvalues --   -1.13093  -1.13031  -1.12484  -1.12444  -1.12418
 Alpha  occ. eigenvalues --   -0.19838  -0.12849  -0.12514  -0.11734
 Alpha virt. eigenvalues --   -0.06237  -0.04732  -0.03620  -0.03334  -0.03066
 Alpha virt. eigenvalues --   -0.02807  -0.01768  -0.00912  -0.00321   0.00159
 Alpha virt. eigenvalues --    0.00274   0.00407   0.00643   0.00816   0.01030

  Beta  occ. eigenvalues --  -38.44503 -38.44249 -38.44049 -38.43962 -38.43823
  Beta  occ. eigenvalues --  -38.43441 -38.42574  -2.20296  -2.20183  -2.20006
  Beta  occ. eigenvalues --   -2.19855  -2.19811  -2.19423  -2.18754  -1.13995
  Beta  occ. eigenvalues --   -1.13965  -1.13934  -1.13923  -1.13902  -1.13840
  Beta  occ. eigenvalues --   -1.13774  -1.13750  -1.13657  -1.13626  -1.13562
  Beta  occ. eigenvalues --   -1.13466  -1.13445  -1.13411  -1.13351  -1.13150
  Beta  occ. eigenvalues --   -1.13034  -1.13025  -1.12441  -1.12396  -1.12382
  Beta  occ. eigenvalues --   -0.19001  -0.12623  -0.12336
  Beta virt. eigenvalues --   -0.07540  -0.06101  -0.04687  -0.03522  -0.02485
  Beta virt. eigenvalues --   -0.02275  -0.02080  -0.01514  -0.00875  -0.00085
  Beta virt. eigenvalues --    0.00172   0.00311   0.00414   0.00803   0.00825

 Mulliken charges and spin densities:
               1          2
     1  Na   0.303011   0.298501
     2  Na  -0.642292   0.374040
     3  Na   1.141540   0.127796
     4  Na  -0.641666  -0.041211
     5  Na   0.216653  -0.115777
     6  Na  -0.353320   0.538374
     7  Na  -0.023926  -0.181724
 Sum of Mulliken charges =  -0.00000   1.00000

 Dipole moment (field-independent basis, Debye):
    X=             -0.0009    Y=              0.0330    Z=              0.2240  Tot=              0.2264
 Quadrupole moment (field-independent basis, Debye-Ang):
   XX=            -58.3976   YY=            -65.0846   ZZ=            -69.5446
   XY=              0.2440   XZ=             -1.6298   YZ=             -0.1046

 Normal termination of Gaussian 16 at Mon Nov 13 18:58:53 2023.
