 Gaussian 16, Revision B.01,
 Gaussian 16:  ES64L-G16RevB.01 20-Dec-2017

 -------------------------
 #P B3LYP/6-311+g(d) force
 -------------------------

 ------------------------------
 Gaussian input prepared by ASE
 ------------------------------
 Symbolic Z-matrix:
 Charge =  0 Multiplicity = 2

                         Standard orientation:
 ---------------------------------------------------------------------
 Center     Atomic      Atomic             Coordinates (Angstroms)
 Number     Number       Type             X           Y           Z
 ---------------------------------------------------------------------
      1         11           0       -1.453071   -1.319482    0.728919
      2         11           0       -3.358766   -0.387499   -1.390797
      3         11           0       -0.027406    3.004745    1.770328
      4         11           0       -1.098192    1.381482   -0.515162
      5         11           0        1.156350   -2.533593    1.572564
      6         11           0        1.055362   -0.693929   -0.794466
      7         11           0        3.725723    0.548276   -1.371386
 ---------------------------------------------------------------------

 SCF Done:  E(UB3LYP) =  -1136.09948036     A.U. after   21 cycles

 The electronic state is 2-A.
 Alpha  occ. eigenvalues --  -38.44798 -38.44319 -38.44255 -38.43616 -38.43613
 Alpha  occ. eigenvalues --  -38.43448 -38.43384  -2.20615  -2.20228  -2.20083
 Alpha  occ. eigenvalues --   -2.19671  -2.19532  -2.19514  -2.19440  -1.14312
 Alpha  occ. eigenvalues --   -1.14238  -1.14223  -1.13943  -1.13895  -1.13842
 Alpha  occ. eigenvalues --   -1.13783  -1.13708  -1.13689  -1.13530  -1.13450
 Alpha  occ. eigenvalues --   -1.13298  -1.13285  -1.13229  -1.13147  -1.13136
 Alpha  occ. eigenvalues --   -1.13127  -1.13087  -1.13082  -1.13046  -1.12985
 Alpha  occ. eigenvalues --   -0.18639  -0.13524  -0.12407  -0.11491
 Alpha virt. eigenvalues --   -0.06163  -0.04866  -0.04110  -0.03379  -0.03118
 Alpha virt. eigenvalues --   -0.02061  -0.01952  -0.01082  -0.00769   0.00026
 Alpha virt. eigenvalues --    0.00111   0.00294   0.00460   0.00713   0.00857

  Beta  occ. eigenvalues --  -38.44727 -38.44287 -38.44180 -38.43601 -38.43592
  Beta  occ. eigenvalues --  -38.43437 -38.43377  -2.20485  -2.20168  -2.19945
  Beta  occ. eigenvalues --   -2.19655  -2.19513  -2.19475  -2.19434  -1.14220
  Beta  occ. eigenvalues --   -1.14149  -1.14137  -1.13906  -1.13856  -1.13798
  Beta  occ. eigenvalues --   -1.13689  -1.13612  -1.13599  -1.13508  -1.13433
  Beta  occ. eigenvalues --   -1.13284  -1.13279  -1.13193  -1.13130  -1.13115
  Beta  occ. eigenvalues --   -1.13096  -1.13070  -1.13046  -1.13011  -1.12972
  Beta  occ. eigenvalues --   -0.18205  -0.12909  -0.11712
  Beta virt. eigenvalues --   -0.08139  -0.05805  -0.04602  -0.03781  -0.03092
  Beta virt. eigenvalues --   -0.02820  -0.01760  -0.01416  -0.00894  -0.00499
  Beta virt. eigenvalues --    0.00170   0.00211   0.00415   0.00637   0.00816

 Mulliken charges and spin densities:
               1          2
     1  Na   1.088554   0.254820
     2  Na   0.647254   0.139369
     3  Na   0.142737   0.321530
     4  Na  -0.843825  -0.134518
     5  Na  -0.242502   0.220592
     6  Na  -0.646254  -0.016368
     7  Na  -0.145964   0.214574
 Sum of Mulliken charges =  -0.00000   1.00000

 Dipole moment (field-independent basis, Debye):
    X=              0.2004    Y=             -0.0296    Z=              0.3846  Tot=              0.4347
 Quadrupole moment (field-independent basis, Debye-Ang):
   XX=            -56.1574   YY=            -70.9110   ZZ=            -65.4654
   XY=              2.0687   XZ=              3.5051   YZ=              0.5038

 Normal termination of Gaussian 16 at Mon Nov 13 18:29:31 2023.
