 Gaussian 16, Revision B.01,
 Gaussian 16:  ES64L-G16RevB.01 20-Dec-2017

 -------------------------
 #P B3LYP/6-311+g(d) force
 -------------------------

 ------------------------------
 Gaussian input prepared by ASE
 ------------------------------
 Symbolic Z-matrix:
 Charge =  0 Multiplicity = 2

                         Standard orientation:
 ---------------------------------------------------------------------
 Center     Atomic      Atomic             Coordinates (Angstroms)
 Number     Number       Type             X           Y           Z
 ---------------------------------------------------------------------
      1         11           0       -1.584894    1.915800    0.228706
      2         11           0       -2.215971   -0.070584   -1.931015
      3         11           0       -1.652231   -0.367482    2.177446
      4         11           0       -1.028820   -2.169021   -0.140218
      5         11           0        1.965314   -2.333644   -0.184338
      6         11           0        3.226872    0.374896    0.048152
      7         11           0        1.289731    2.650035   -0.198733
 ---------------------------------------------------------------------

 SCF Done:  E(UB3LYP) =  -1136.10838574     A.U. after   20 cycles

 The electronic state is 2-A.
 Alpha  occ. eigenvalues --  -38.44714 -38.44699 -38.44323 -38.44208 -38.44097
 Alpha  occ. eigenvalues --  -38.43985 -38.43881  -2.20629  -2.20618  -2.20187
 Alpha  occ. eigenvalues --   -2.20070  -2.19963  -2.19950  -2.19848  -1.14316
 Alpha  occ. eigenvalues --   -1.14311  -1.14300  -1.14288  -1.14227  -1.14212
 Alpha  occ. eigenvalues --   -1.13979  -1.13901  -1.13825  -1.13806  -1.13758
 Alpha  occ. eigenvalues --   -1.13699  -1.13670  -1.13631  -1.13597  -1.13580
 Alpha  occ. eigenvalues --   -1.13569  -1.13522  -1.13497  -1.13482  -1.13452
 Alpha  occ. eigenvalues --   -0.18611  -0.13781  -0.12976  -0.11489
 Alpha virt. eigenvalues --   -0.06044  -0.05976  -0.04297  -0.03374  -0.03227
 Alpha virt. eigenvalues --   -0.03097  -0.01009  -0.00782  -0.00619  -0.00506
 Alpha virt. eigenvalues --   -0.00263   0.00405   0.00680   0.00767   0.00779

  Beta  occ. eigenvalues --  -38.44625 -38.44599 -38.44326 -38.44213 -38.44101
  Beta  occ. eigenvalues --  -38.43967 -38.43864  -2.20464  -2.20433  -2.20192
  Beta  occ. eigenvalues --   -2.20079  -2.19967  -2.19930  -2.19825  -1.14210
  Beta  occ. eigenvalues --   -1.14195  -1.14175  -1.14165  -1.14114  -1.14086
  Beta  occ. eigenvalues --   -1.13988  -1.13905  -1.13826  -1.13810  -1.13758
  Beta  occ. eigenvalues --   -1.13697  -1.13675  -1.13596  -1.13589  -1.13566
  Beta  occ. eigenvalues --   -1.13538  -1.13495  -1.13474  -1.13449  -1.13441
  Beta  occ. eigenvalues --   -0.17930  -0.13592  -0.12807
  Beta virt. eigenvalues --   -0.07389  -0.05890  -0.05867  -0.04154  -0.02849
  Beta virt. eigenvalues --   -0.02503  -0.02097  -0.00919  -0.00722  -0.00581
  Beta virt. eigenvalues --   -0.00466   0.00056   0.00515   0.00772   0.00866

 Mulliken charges and spin densities:
               1          2
     1  Na  -0.600081   0.259983
     2  Na   0.613780   0.197251
     3  Na   0.531740   0.333263
     4  Na  -0.479542   0.283721
     5  Na   0.165290   0.013796
     6  Na  -0.396997  -0.129340
     7  Na   0.165810   0.041325
 Sum of Mulliken charges =  -0.00000   1.00000

 Dipole moment (field-independent basis, Debye):
    X=              0.0350    Y=             -0.0299    Z=              0.0020  Tot=              0.0461
 Quadrupole moment (field-independent basis, Debye-Ang):
   XX=            -63.3847   YY=            -67.8249   ZZ=            -69.9655
   XY=             -0.5003   XZ=              0.5277   YZ=             -0.3101

 Normal termination of Gaussian 16 at Mon Nov 13 15:05:48 2023.
