 Gaussian 16, Revision B.01,
 Gaussian 16:  ES64L-G16RevB.01 20-Dec-2017

 -------------------------
 #P B3LYP/6-311+g(d) force
 -------------------------

 ------------------------------
 Gaussian input prepared by ASE
 ------------------------------
 Symbolic Z-matrix:
 Charge =  0 Multiplicity = 2

                         Standard orientation:
 ---------------------------------------------------------------------
 Center     Atomic      Atomic             Coordinates (Angstroms)
 Number     Number       Type             X           Y           Z
 ---------------------------------------------------------------------
      1         11           0       -0.204711   -1.073642   -1.949880
      2         11           0       -1.901949   -2.597692    0.005548
      3         11           0       -3.134785    2.687545   -0.077317
      4         11           0       -0.476957    1.312872   -0.147145
      5         11           0       -0.534227   -0.801462    1.985239
      6         11           0        1.848300   -0.540651    0.175675
      7         11           0        4.404329    1.013030    0.007880
 ---------------------------------------------------------------------

 SCF Done:  E(UB3LYP) =  -1136.09490263     A.U. after   22 cycles

 The electronic state is 2-A.
 Alpha  occ. eigenvalues --  -38.45272 -38.44675 -38.44637 -38.44573 -38.43677
 Alpha  occ. eigenvalues --  -38.43591 -38.43182  -2.21049  -2.20644  -2.20583
 Alpha  occ. eigenvalues --   -2.20568  -2.19738  -2.19388  -2.19241  -1.14751
 Alpha  occ. eigenvalues --   -1.14698  -1.14695  -1.14397  -1.14374  -1.14347
 Alpha  occ. eigenvalues --   -1.14294  -1.14255  -1.14211  -1.14179  -1.14126
 Alpha  occ. eigenvalues --   -1.14076  -1.13481  -1.13406  -1.13317  -1.13140
 Alpha  occ. eigenvalues --   -1.13039  -1.13034  -1.12920  -1.12881  -1.12799
 Alpha  occ. eigenvalues --   -0.19518  -0.13113  -0.11954  -0.11723
 Alpha virt. eigenvalues --   -0.07407  -0.04889  -0.03472  -0.03294  -0.03243
 Alpha virt. eigenvalues --   -0.02508  -0.02301  -0.01462  -0.00533  -0.00239
 Alpha virt. eigenvalues --    0.00076   0.00367   0.00495   0.00700   0.00765

  Beta  occ. eigenvalues --  -38.45293 -38.44653 -38.44538 -38.44477 -38.43652
  Beta  occ. eigenvalues --  -38.43605 -38.43154  -2.21088  -2.20540  -2.20461
  Beta  occ. eigenvalues --   -2.20402  -2.19700  -2.19416  -2.19198  -1.14777
  Beta  occ. eigenvalues --   -1.14723  -1.14721  -1.14318  -1.14281  -1.14242
  Beta  occ. eigenvalues --   -1.14178  -1.14176  -1.14119  -1.14073  -1.14032
  Beta  occ. eigenvalues --   -1.13985  -1.13462  -1.13313  -1.13307  -1.13150
  Beta  occ. eigenvalues --   -1.13058  -1.13049  -1.12874  -1.12826  -1.12777
  Beta  occ. eigenvalues --   -0.18595  -0.13056  -0.11826
  Beta virt. eigenvalues --   -0.07472  -0.07211  -0.04720  -0.03252  -0.02657
  Beta virt. eigenvalues --   -0.02305  -0.02146  -0.01884  -0.01501  -0.00288
  Beta virt. eigenvalues --   -0.00157   0.00047   0.00490   0.00656   0.00765

 Mulliken charges and spin densities:
               1          2
     1  Na  -0.006502   0.325727
     2  Na   0.364780   0.040966
     3  Na   0.303613  -0.026008
     4  Na  -1.348293   0.270626
     5  Na   0.403012   0.476745
     6  Na   0.316157   0.168253
     7  Na  -0.032767  -0.256309
 Sum of Mulliken charges =  -0.00000   1.00000

 Dipole moment (field-independent basis, Debye):
    X=              0.2494    Y=             -0.6613    Z=             -0.0484  Tot=              0.7084
 Quadrupole moment (field-independent basis, Debye-Ang):
   XX=            -50.9736   YY=            -69.8276   ZZ=            -70.4158
   XY=              6.8377   XZ=             -0.6726   YZ=              0.0945

 Normal termination of Gaussian 16 at Mon Nov 13 19:24:01 2023.
