 Gaussian 16, Revision B.01,
 Gaussian 16:  ES64L-G16RevB.01 20-Dec-2017

 -------------------------
 #P B3LYP/6-311+g(d) force
 -------------------------

 ------------------------------
 Gaussian input prepared by ASE
 ------------------------------
 Symbolic Z-matrix:
 Charge =  0 Multiplicity = 2

                         Standard orientation:
 ---------------------------------------------------------------------
 Center     Atomic      Atomic             Coordinates (Angstroms)
 Number     Number       Type             X           Y           Z
 ---------------------------------------------------------------------
      1         11           0        0.182803    0.023982   -1.581136
      2         11           0       -0.158157   -2.136313    0.314229
      3         11           0        2.487578   -0.975038   -0.170550
      4         11           0        1.578242    1.782917    0.209842
      5         11           0       -1.325997    1.817796   -0.196858
      6         11           0       -0.303669    0.193083    1.704170
      7         11           0       -2.460800   -0.706428   -0.279698
 ---------------------------------------------------------------------

 SCF Done:  E(UB3LYP) =  -1136.07345129     A.U. after   19 cycles

 The electronic state is 2-A.
 Alpha  occ. eigenvalues --  -38.44247 -38.43978 -38.43961 -38.43850 -38.43778
 Alpha  occ. eigenvalues --  -38.43501 -38.43481  -2.20544  -2.20317  -2.20117
 Alpha  occ. eigenvalues --   -2.19988  -2.19898  -2.19680  -2.19611  -1.14481
 Alpha  occ. eigenvalues --   -1.14367  -1.14209  -1.14189  -1.14066  -1.14046
 Alpha  occ. eigenvalues --   -1.13956  -1.13829  -1.13685  -1.13626  -1.13593
 Alpha  occ. eigenvalues --   -1.13566  -1.13544  -1.13484  -1.13458  -1.13298
 Alpha  occ. eigenvalues --   -1.13270  -1.13265  -1.13223  -1.13188  -1.13144
 Alpha  occ. eigenvalues --   -0.21803  -0.14036  -0.13060  -0.12113
 Alpha virt. eigenvalues --   -0.05243  -0.04402  -0.04088  -0.03627  -0.03128
 Alpha virt. eigenvalues --   -0.02614  -0.01119  -0.00531  -0.00042   0.00346
 Alpha virt. eigenvalues --    0.00739   0.00816   0.01031   0.01151   0.01170

  Beta  occ. eigenvalues --  -38.44152 -38.43963 -38.43874 -38.43843 -38.43759
  Beta  occ. eigenvalues --  -38.43482 -38.43467  -2.20373  -2.20167  -2.20094
  Beta  occ. eigenvalues --   -2.19959  -2.19889  -2.19652  -2.19593  -1.14404
  Beta  occ. eigenvalues --   -1.14252  -1.14111  -1.14090  -1.13973  -1.13952
  Beta  occ. eigenvalues --   -1.13942  -1.13783  -1.13624  -1.13613  -1.13565
  Beta  occ. eigenvalues --   -1.13531  -1.13482  -1.13454  -1.13406  -1.13276
  Beta  occ. eigenvalues --   -1.13251  -1.13193  -1.13180  -1.13153  -1.13137
  Beta  occ. eigenvalues --   -0.21002  -0.13664  -0.12694
  Beta virt. eigenvalues --   -0.07878  -0.05265  -0.04382  -0.04064  -0.02679
  Beta virt. eigenvalues --   -0.02201  -0.01506  -0.01040  -0.00495   0.00100
  Beta virt. eigenvalues --    0.00378   0.00721   0.00797   0.01052   0.01155

 Mulliken charges and spin densities:
               1          2
     1  Na  -0.547652   0.385303
     2  Na   0.498915   0.134901
     3  Na  -0.025859  -0.024337
     4  Na   0.226799   0.046331
     5  Na   0.242888   0.026412
     6  Na  -0.433452   0.447317
     7  Na   0.038360  -0.015927
 Sum of Mulliken charges =  -0.00000   1.00000

 Dipole moment (field-independent basis, Debye):
    X=              0.2127    Y=             -0.1080    Z=              0.0687  Tot=              0.2483
 Quadrupole moment (field-independent basis, Debye-Ang):
   XX=            -58.9699   YY=            -68.4591   ZZ=            -70.0039
   XY=              0.1269   XZ=              0.8949   YZ=             -0.0048

 Normal termination of Gaussian 16 at Mon Nov 13 20:05:38 2023.
