 Gaussian 16, Revision B.01,
 Gaussian 16:  ES64L-G16RevB.01 20-Dec-2017

 -------------------------
 #P B3LYP/6-311+g(d) force
 -------------------------

 ------------------------------
 Gaussian input prepared by ASE
 ------------------------------
 Symbolic Z-matrix:
 Charge =  0 Multiplicity = 2

                         Standard orientation:
 ---------------------------------------------------------------------
 Center     Atomic      Atomic             Coordinates (Angstroms)
 Number     Number       Type             X           Y           Z
 ---------------------------------------------------------------------
      1         11           0        0.349764    1.959929   -0.516713
      2         11           0        1.628147    0.183900    1.533188
      3         11           0        3.921599   -0.663964   -0.207285
      4         11           0        1.105935   -0.856041   -1.224530
      5         11           0       -2.621193    2.178334   -0.169448
      6         11           0       -1.190897   -0.336013    0.636662
      7         11           0       -3.193355   -2.466145   -0.051874
 ---------------------------------------------------------------------

 SCF Done:  E(UB3LYP) =  -1136.08948741     A.U. after   25 cycles

 The electronic state is 2-A.
 Alpha  occ. eigenvalues --  -38.45648 -38.45121 -38.44956 -38.43797 -38.43423
 Alpha  occ. eigenvalues --  -38.43376 -38.42740  -2.21537  -2.21002  -2.20993
 Alpha  occ. eigenvalues --   -2.19904  -2.19491  -2.19179  -2.18918  -1.15248
 Alpha  occ. eigenvalues --   -1.15214  -1.15154  -1.14773  -1.14707  -1.14648
 Alpha  occ. eigenvalues --   -1.14638  -1.14611  -1.14589  -1.13661  -1.13532
 Alpha  occ. eigenvalues --   -1.13499  -1.13227  -1.13115  -1.13097  -1.12914
 Alpha  occ. eigenvalues --   -1.12826  -1.12820  -1.12653  -1.12550  -1.12472
 Alpha  occ. eigenvalues --   -0.19861  -0.14463  -0.11545  -0.10678
 Alpha virt. eigenvalues --   -0.07539  -0.05518  -0.03757  -0.03341  -0.02964
 Alpha virt. eigenvalues --   -0.02009  -0.01728  -0.01255  -0.00608  -0.00243
 Alpha virt. eigenvalues --    0.00017   0.00348   0.00612   0.00639   0.00782

  Beta  occ. eigenvalues --  -38.45627 -38.45115 -38.44913 -38.43709 -38.43402
  Beta  occ. eigenvalues --  -38.43384 -38.42706  -2.21502  -2.20983  -2.20927
  Beta  occ. eigenvalues --   -2.19746  -2.19460  -2.19194  -2.18862  -1.15229
  Beta  occ. eigenvalues --   -1.15163  -1.15129  -1.14710  -1.14702  -1.14635
  Beta  occ. eigenvalues --   -1.14600  -1.14573  -1.14530  -1.13553  -1.13416
  Beta  occ. eigenvalues --   -1.13384  -1.13208  -1.13089  -1.13030  -1.12918
  Beta  occ. eigenvalues --   -1.12833  -1.12830  -1.12624  -1.12481  -1.12418
  Beta  occ. eigenvalues --   -0.19076  -0.14216  -0.11427
  Beta virt. eigenvalues --   -0.07355  -0.06589  -0.05332  -0.03354  -0.02949
  Beta virt. eigenvalues --   -0.02871  -0.01438  -0.01348  -0.00907  -0.00340
  Beta virt. eigenvalues --   -0.00070   0.00082   0.00443   0.00683   0.00733

 Mulliken charges and spin densities:
               1          2
     1  Na   0.259805   0.435268
     2  Na   0.151284  -0.014459
     3  Na   0.327341   0.151593
     4  Na  -0.275870   0.202883
     5  Na   0.063535  -0.151774
     6  Na  -0.735388   0.581797
     7  Na   0.209293  -0.205308
 Sum of Mulliken charges =  -0.00000   1.00000

 Dipole moment (field-independent basis, Debye):
    X=              1.0640    Y=              0.6977    Z=              0.0948  Tot=              1.2759
 Quadrupole moment (field-independent basis, Debye-Ang):
   XX=            -45.5054   YY=            -70.9851   ZZ=            -74.6802
   XY=             -4.5311   XZ=              2.0012   YZ=              1.3376

 Normal termination of Gaussian 16 at Mon Nov 13 18:56:15 2023.
