 Gaussian 16, Revision B.01,
 Gaussian 16:  ES64L-G16RevB.01 20-Dec-2017

 -------------------------
 #P B3LYP/6-311+g(d) force
 -------------------------

 ------------------------------
 Gaussian input prepared by ASE
 ------------------------------
 Symbolic Z-matrix:
 Charge =  0 Multiplicity = 2

                         Standard orientation:
 ---------------------------------------------------------------------
 Center     Atomic      Atomic             Coordinates (Angstroms)
 Number     Number       Type             X           Y           Z
 ---------------------------------------------------------------------
      1         11           0        0.232780   -0.020758    1.896349
      2         11           0        2.419597   -0.698008    0.379953
      3         11           0       -3.884345   -0.001722    0.000551
      4         11           0       -1.125406    0.699480   -0.380195
      5         11           0       -0.028833   -1.812603   -0.169007
      6         11           0        1.062307    0.021180   -1.895557
      7         11           0        1.323899    1.812431    0.167907
 ---------------------------------------------------------------------

 SCF Done:  E(UB3LYP) =  -1136.03454628     A.U. after   48 cycles

 The electronic state is 2-A.
 Alpha  occ. eigenvalues --  -38.45866 -38.45504 -38.45347 -38.44869 -38.43791
 Alpha  occ. eigenvalues --  -38.43158 -38.43126  -2.21780  -2.21662  -2.21634
 Alpha  occ. eigenvalues --   -2.21139  -2.20152  -2.19409  -2.19383  -1.15696
 Alpha  occ. eigenvalues --   -1.15504  -1.15488  -1.15412  -1.15390  -1.15370
 Alpha  occ. eigenvalues --   -1.15302  -1.15282  -1.15226  -1.14784  -1.14751
 Alpha  occ. eigenvalues --   -1.14706  -1.13950  -1.13814  -1.13773  -1.13099
 Alpha  occ. eigenvalues --   -1.13053  -1.13050  -1.12997  -1.12949  -1.12897
 Alpha  occ. eigenvalues --   -0.22001  -0.13975  -0.12949  -0.11733
 Alpha virt. eigenvalues --   -0.07123  -0.03902  -0.03816  -0.03249  -0.02737
 Alpha virt. eigenvalues --   -0.02461  -0.02139  -0.00456  -0.00291   0.00122
 Alpha virt. eigenvalues --    0.00381   0.00458   0.00661   0.00878   0.01146

  Beta  occ. eigenvalues --  -38.45882 -38.45394 -38.45239 -38.44837 -38.43760
  Beta  occ. eigenvalues --  -38.43136 -38.43103  -2.21693  -2.21585  -2.21441
  Beta  occ. eigenvalues --   -2.21091  -2.20105  -2.19379  -2.19353  -1.15592
  Beta  occ. eigenvalues --   -1.15425  -1.15386  -1.15337  -1.15320  -1.15303
  Beta  occ. eigenvalues --   -1.15244  -1.15239  -1.15084  -1.14739  -1.14725
  Beta  occ. eigenvalues --   -1.14591  -1.13935  -1.13783  -1.13667  -1.13092
  Beta  occ. eigenvalues --   -1.13042  -1.12953  -1.12936  -1.12896  -1.12876
  Beta  occ. eigenvalues --   -0.21046  -0.13803  -0.11312
  Beta virt. eigenvalues --   -0.08507  -0.06960  -0.03380  -0.03258  -0.03038
  Beta virt. eigenvalues --   -0.02159  -0.01821  -0.01775  -0.00278  -0.00179
  Beta virt. eigenvalues --    0.00168   0.00448   0.00654   0.00664   0.00932

 Mulliken charges and spin densities:
               1          2
     1  Na  -0.778887   0.334738
     2  Na   0.846681   0.224603
     3  Na   0.583378  -0.111912
     4  Na   0.852489   0.512730
     5  Na  -0.126030   0.028941
     6  Na  -0.861874  -0.031550
     7  Na  -0.515757   0.042449
 Sum of Mulliken charges =  -0.00000   1.00000

 Dipole moment (field-independent basis, Debye):
    X=             -1.2120    Y=             -0.2392    Z=              0.0983  Tot=              1.2393
 Quadrupole moment (field-independent basis, Debye-Ang):
   XX=            -48.5415   YY=            -79.4526   ZZ=            -65.2204
   XY=              1.0222   XZ=             -0.5521   YZ=              0.6735

 Normal termination of Gaussian 16 at Mon Nov 13 20:32:51 2023.
