 Gaussian 16, Revision B.01,
 Gaussian 16:  ES64L-G16RevB.01 20-Dec-2017

 -------------------------
 #P B3LYP/6-311+g(d) force
 -------------------------

 ------------------------------
 Gaussian input prepared by ASE
 ------------------------------
 Symbolic Z-matrix:
 Charge =  0 Multiplicity = 2

                         Standard orientation:
 ---------------------------------------------------------------------
 Center     Atomic      Atomic             Coordinates (Angstroms)
 Number     Number       Type             X           Y           Z
 ---------------------------------------------------------------------
      1         11           0        1.688263   -0.120265    1.531789
      2         11           0        3.574651   -1.482252   -0.364591
      3         11           0        1.757453    2.386898   -0.121370
      4         11           0        1.040682   -0.242085   -1.383098
      5         11           0       -1.123503   -0.701492    0.645951
      6         11           0       -3.004652    1.504581   -0.127542
      7         11           0       -3.932893   -1.345385   -0.181139
 ---------------------------------------------------------------------

 SCF Done:  E(UB3LYP) =  -1136.08698632     A.U. after   30 cycles

 The electronic state is 2-A.
 Alpha  occ. eigenvalues --  -38.45411 -38.45062 -38.44767 -38.44083 -38.43719
 Alpha  occ. eigenvalues --  -38.43214 -38.43129  -2.21292  -2.21132  -2.20666
 Alpha  occ. eigenvalues --   -2.20189  -2.19818  -2.19128  -2.19034  -1.15025
 Alpha  occ. eigenvalues --   -1.14948  -1.14917  -1.14884  -1.14844  -1.14722
 Alpha  occ. eigenvalues --   -1.14363  -1.14306  -1.14291  -1.13936  -1.13867
 Alpha  occ. eigenvalues --   -1.13791  -1.13520  -1.13438  -1.13399  -1.12804
 Alpha  occ. eigenvalues --   -1.12796  -1.12733  -1.12723  -1.12716  -1.12610
 Alpha  occ. eigenvalues --   -0.19199  -0.15459  -0.10799  -0.10601
 Alpha virt. eigenvalues --   -0.07298  -0.06063  -0.04046  -0.03311  -0.02786
 Alpha virt. eigenvalues --   -0.01857  -0.01694  -0.01473  -0.00646  -0.00541
 Alpha virt. eigenvalues --   -0.00103   0.00236   0.00446   0.00555   0.00577

  Beta  occ. eigenvalues --  -38.45394 -38.45033 -38.44755 -38.44030 -38.43652
  Beta  occ. eigenvalues --  -38.43186 -38.43115  -2.21264  -2.21088  -2.20646
  Beta  occ. eigenvalues --   -2.20100  -2.19704  -2.19077  -2.19009  -1.15009
  Beta  occ. eigenvalues --   -1.14923  -1.14887  -1.14832  -1.14783  -1.14693
  Beta  occ. eigenvalues --   -1.14349  -1.14284  -1.14274  -1.13842  -1.13781
  Beta  occ. eigenvalues --   -1.13739  -1.13450  -1.13332  -1.13315  -1.12776
  Beta  occ. eigenvalues --   -1.12756  -1.12720  -1.12689  -1.12677  -1.12582
  Beta  occ. eigenvalues --   -0.18466  -0.15089  -0.10598
  Beta virt. eigenvalues --   -0.07135  -0.06643  -0.05933  -0.03586  -0.03127
  Beta virt. eigenvalues --   -0.02581  -0.01516  -0.01324  -0.01094  -0.00450
  Beta virt. eigenvalues --   -0.00088   0.00004   0.00286   0.00573   0.00632

 Mulliken charges and spin densities:
               1          2
     1  Na  -0.110486  -0.194450
     2  Na   0.630353   0.085769
     3  Na  -0.002891  -0.023115
     4  Na  -0.750487   0.722260
     5  Na  -0.106241  -0.259741
     6  Na   0.044306   0.269156
     7  Na   0.295446   0.400120
 Sum of Mulliken charges =  -0.00000   1.00000

 Dipole moment (field-independent basis, Debye):
    X=             -1.6951    Y=              0.4239    Z=              0.1736  Tot=              1.7559
 Quadrupole moment (field-independent basis, Debye-Ang):
   XX=            -56.3876   YY=            -72.7772   ZZ=            -68.9115
   XY=              2.3961   XZ=              4.3905   YZ=              2.5911

 Normal termination of Gaussian 16 at Mon Nov 13 17:18:17 2023.
