 Gaussian 16, Revision B.01,
 Gaussian 16:  ES64L-G16RevB.01 20-Dec-2017

 -------------------------
 #P B3LYP/6-311+g(d) force
 -------------------------

 ------------------------------
 Gaussian input prepared by ASE
 ------------------------------
 Symbolic Z-matrix:
 Charge =  0 Multiplicity = 2

                         Standard orientation:
 ---------------------------------------------------------------------
 Center     Atomic      Atomic             Coordinates (Angstroms)
 Number     Number       Type             X           Y           Z
 ---------------------------------------------------------------------
      1         11           0       -1.761392   -0.444650    1.714686
      2         11           0       -1.508816    2.133230    0.208973
      3         11           0       -3.720708    0.210978   -0.459162
      4         11           0       -1.760245   -2.033971   -0.824633
      5         11           0        0.455429   -0.083891   -0.270148
      6         11           0        3.198047    0.755137   -1.149327
      7         11           0        5.097684   -0.536834    0.779611
 ---------------------------------------------------------------------

 SCF Done:  E(UB3LYP) =  -1136.08465046     A.U. after   30 cycles

 The electronic state is 2-A.
 Alpha  occ. eigenvalues --  -38.45944 -38.45054 -38.44754 -38.44587 -38.43710
 Alpha  occ. eigenvalues --  -38.42404 -38.42264  -2.22014  -2.20878  -2.20771
 Alpha  occ. eigenvalues --   -2.20456  -2.19807  -2.18411  -2.18263  -1.15751
 Alpha  occ. eigenvalues --   -1.15732  -1.15593  -1.14577  -1.14508  -1.14500
 Alpha  occ. eigenvalues --   -1.14447  -1.14428  -1.14366  -1.14186  -1.14096
 Alpha  occ. eigenvalues --   -1.14075  -1.13516  -1.13451  -1.13401  -1.12105
 Alpha  occ. eigenvalues --   -1.12059  -1.12039  -1.11970  -1.11917  -1.11895
 Alpha  occ. eigenvalues --   -0.19390  -0.14837  -0.11274  -0.11012
 Alpha virt. eigenvalues --   -0.07617  -0.05479  -0.03674  -0.03479  -0.02887
 Alpha virt. eigenvalues --   -0.01905  -0.01600  -0.01370  -0.01267  -0.00710
 Alpha virt. eigenvalues --   -0.00096   0.00105   0.00271   0.00550   0.00795

  Beta  occ. eigenvalues --  -38.45933 -38.44981 -38.44676 -38.44593 -38.43639
  Beta  occ. eigenvalues --  -38.42384 -38.42262  -2.22002  -2.20744  -2.20627
  Beta  occ. eigenvalues --   -2.20473  -2.19679  -2.18380  -2.18264  -1.15743
  Beta  occ. eigenvalues --   -1.15669  -1.15594  -1.14494  -1.14416  -1.14409
  Beta  occ. eigenvalues --   -1.14359  -1.14327  -1.14259  -1.14175  -1.14103
  Beta  occ. eigenvalues --   -1.14071  -1.13443  -1.13366  -1.13303  -1.12089
  Beta  occ. eigenvalues --   -1.12031  -1.11990  -1.11979  -1.11917  -1.11855
  Beta  occ. eigenvalues --   -0.18709  -0.14185  -0.10722
  Beta virt. eigenvalues --   -0.07755  -0.07212  -0.05012  -0.03230  -0.03156
  Beta virt. eigenvalues --   -0.02814  -0.01572  -0.01384  -0.01062  -0.00720
  Beta virt. eigenvalues --   -0.00338   0.00057   0.00163   0.00338   0.00614

 Mulliken charges and spin densities:
               1          2
     1  Na   0.586637   0.254657
     2  Na   0.416792   0.003723
     3  Na   0.482390   0.347800
     4  Na   1.106912  -0.095995
     5  Na  -2.035703  -0.093894
     6  Na  -0.527522   0.200846
     7  Na  -0.029506   0.382862
 Sum of Mulliken charges =  -0.00000   1.00000

 Dipole moment (field-independent basis, Debye):
    X=              0.7575    Y=             -0.1555    Z=              0.6569  Tot=              1.0147
 Quadrupole moment (field-independent basis, Debye-Ang):
   XX=            -61.8785   YY=            -79.6151   ZZ=            -58.9944
   XY=             -2.1989   XZ=              3.2098   YZ=             -6.6556

 Normal termination of Gaussian 16 at Mon Nov 13 15:51:20 2023.
