 Gaussian 16, Revision B.01,
 Gaussian 16:  ES64L-G16RevB.01 20-Dec-2017

 -------------------------
 #P B3LYP/6-311+g(d) force
 -------------------------

 ------------------------------
 Gaussian input prepared by ASE
 ------------------------------
 Symbolic Z-matrix:
 Charge =  0 Multiplicity = 2

                         Standard orientation:
 ---------------------------------------------------------------------
 Center     Atomic      Atomic             Coordinates (Angstroms)
 Number     Number       Type             X           Y           Z
 ---------------------------------------------------------------------
      1         11           0        0.864082    0.759823   -0.868660
      2         11           0       -1.408843    2.708527   -0.656753
      3         11           0       -2.876012   -0.962558    2.076503
      4         11           0       -1.960633   -0.238298   -0.688396
      5         11           0        0.223461   -2.064384   -1.633557
      6         11           0        2.257584   -1.515610    0.503154
      7         11           0        2.900360    1.312500    1.267709
 ---------------------------------------------------------------------

 SCF Done:  E(UB3LYP) =  -1136.10242734     A.U. after   20 cycles

 The electronic state is 2-A.
 Alpha  occ. eigenvalues --  -38.45430 -38.43943 -38.43831 -38.43710 -38.43347
 Alpha  occ. eigenvalues --  -38.43222 -38.43150  -2.21263  -2.19923  -2.19727
 Alpha  occ. eigenvalues --   -2.19603  -2.19421  -2.19407  -2.19138  -1.14936
 Alpha  occ. eigenvalues --   -1.14873  -1.14856  -1.13704  -1.13648  -1.13549
 Alpha  occ. eigenvalues --   -1.13446  -1.13405  -1.13353  -1.13322  -1.13278
 Alpha  occ. eigenvalues --   -1.13258  -1.13221  -1.13095  -1.13055  -1.13032
 Alpha  occ. eigenvalues --   -1.13026  -1.12966  -1.12772  -1.12758  -1.12724
 Alpha  occ. eigenvalues --   -0.18914  -0.14124  -0.12105  -0.11779
 Alpha virt. eigenvalues --   -0.05239  -0.04936  -0.04721  -0.03787  -0.02868
 Alpha virt. eigenvalues --   -0.02534  -0.01219  -0.00870  -0.00456   0.00091
 Alpha virt. eigenvalues --    0.00227   0.00293   0.00470   0.00718   0.00881

  Beta  occ. eigenvalues --  -38.45307 -38.43935 -38.43811 -38.43693 -38.43330
  Beta  occ. eigenvalues --  -38.43194 -38.43122  -2.21035  -2.19910  -2.19690
  Beta  occ. eigenvalues --   -2.19573  -2.19398  -2.19365  -2.19088  -1.14783
  Beta  occ. eigenvalues --   -1.14718  -1.14701  -1.13694  -1.13619  -1.13542
  Beta  occ. eigenvalues --   -1.13419  -1.13380  -1.13326  -1.13295  -1.13261
  Beta  occ. eigenvalues --   -1.13220  -1.13194  -1.13054  -1.13018  -1.13005
  Beta  occ. eigenvalues --   -1.12991  -1.12920  -1.12739  -1.12720  -1.12692
  Beta  occ. eigenvalues --   -0.18346  -0.13424  -0.11824
  Beta virt. eigenvalues --   -0.08019  -0.05152  -0.04579  -0.04127  -0.03698
  Beta virt. eigenvalues --   -0.02251  -0.01873  -0.01094  -0.00792  -0.00118
  Beta virt. eigenvalues --    0.00247   0.00304   0.00421   0.00644   0.00813

 Mulliken charges and spin densities:
               1          2
     1  Na  -0.773278   0.202275
     2  Na  -0.339900   0.084121
     3  Na  -0.431694   0.531708
     4  Na   1.296372  -0.104228
     5  Na   0.223431   0.113310
     6  Na  -0.005587   0.099808
     7  Na   0.030656   0.073005
 Sum of Mulliken charges =  -0.00000   1.00000

 Dipole moment (field-independent basis, Debye):
    X=             -0.0527    Y=             -0.0769    Z=              1.0536  Tot=              1.0577
 Quadrupole moment (field-independent basis, Debye-Ang):
   XX=            -64.5573   YY=            -66.7055   ZZ=            -65.0162
   XY=             -1.6832   XZ=              0.4012   YZ=             -0.7481

 Normal termination of Gaussian 16 at Mon Nov 13 15:16:51 2023.
