 Gaussian 16, Revision B.01,
 Gaussian 16:  ES64L-G16RevB.01 20-Dec-2017

 -------------------------
 #P B3LYP/6-311+g(d) force
 -------------------------

 ------------------------------
 Gaussian input prepared by ASE
 ------------------------------
 Symbolic Z-matrix:
 Charge =  0 Multiplicity = 2

                         Standard orientation:
 ---------------------------------------------------------------------
 Center     Atomic      Atomic             Coordinates (Angstroms)
 Number     Number       Type             X           Y           Z
 ---------------------------------------------------------------------
      1         11           0       -1.310192    0.530436   -1.437006
      2         11           0       -0.735782    2.320226    0.904386
      3         11           0       -3.917636   -0.419907   -0.293085
      4         11           0       -1.404832   -0.573928    1.339709
      5         11           0        0.469400   -1.766737   -0.673144
      6         11           0        2.992677   -1.239012    0.863683
      7         11           0        3.906363    1.148922   -0.704544
 ---------------------------------------------------------------------

 SCF Done:  E(UB3LYP) =  -1136.08648465     A.U. after   33 cycles

 The electronic state is 2-A.
 Alpha  occ. eigenvalues --  -38.45713 -38.44847 -38.44819 -38.44551 -38.44334
 Alpha  occ. eigenvalues --  -38.43355 -38.42419  -2.21775  -2.20918  -2.20762
 Alpha  occ. eigenvalues --   -2.20436  -2.20157  -2.19328  -2.18337  -1.15515
 Alpha  occ. eigenvalues --   -1.15486  -1.15374  -1.14667  -1.14625  -1.14524
 Alpha  occ. eigenvalues --   -1.14421  -1.14363  -1.14323  -1.14165  -1.14134
 Alpha  occ. eigenvalues --   -1.14069  -1.13801  -1.13778  -1.13765  -1.13046
 Alpha  occ. eigenvalues --   -1.12994  -1.12899  -1.12047  -1.12010  -1.11920
 Alpha  occ. eigenvalues --   -0.19171  -0.14691  -0.11110  -0.10899
 Alpha virt. eigenvalues --   -0.07878  -0.05451  -0.03705  -0.03550  -0.02975
 Alpha virt. eigenvalues --   -0.02193  -0.01852  -0.01492  -0.00633  -0.00436
 Alpha virt. eigenvalues --   -0.00173   0.00054   0.00211   0.00662   0.00742

  Beta  occ. eigenvalues --  -38.45703 -38.44782 -38.44768 -38.44539 -38.44268
  Beta  occ. eigenvalues --  -38.43341 -38.42400  -2.21762  -2.20859  -2.20614
  Beta  occ. eigenvalues --   -2.20421  -2.20037  -2.19305  -2.18303  -1.15499
  Beta  occ. eigenvalues --   -1.15460  -1.15362  -1.14592  -1.14576  -1.14482
  Beta  occ. eigenvalues --   -1.14313  -1.14274  -1.14225  -1.14138  -1.14108
  Beta  occ. eigenvalues --   -1.14050  -1.13721  -1.13700  -1.13682  -1.13035
  Beta  occ. eigenvalues --   -1.12952  -1.12900  -1.12020  -1.11982  -1.11899
  Beta  occ. eigenvalues --   -0.18642  -0.13960  -0.10854
  Beta virt. eigenvalues --   -0.07733  -0.07287  -0.05014  -0.03541  -0.03072
  Beta virt. eigenvalues --   -0.02719  -0.01934  -0.01653  -0.00961  -0.00344
  Beta virt. eigenvalues --   -0.00175   0.00067   0.00148   0.00344   0.00740

 Mulliken charges and spin densities:
               1          2
     1  Na  -0.849684   0.385360
     2  Na   0.075901  -0.207544
     3  Na   1.148515   0.227933
     4  Na  -1.121597   0.143539
     5  Na   0.819715  -0.054530
     6  Na   0.359265   0.146209
     7  Na  -0.432114   0.359034
 Sum of Mulliken charges =  -0.00000   1.00000

 Dipole moment (field-independent basis, Debye):
    X=             -0.4470    Y=             -0.1573    Z=              0.3250  Tot=              0.5746
 Quadrupole moment (field-independent basis, Debye-Ang):
   XX=            -65.2253   YY=            -77.8216   ZZ=            -61.3950
   XY=              0.0581   XZ=             -2.2505   YZ=             -6.3215

 Normal termination of Gaussian 16 at Mon Nov 13 15:10:36 2023.
