 Gaussian 16, Revision B.01,
 Gaussian 16:  ES64L-G16RevB.01 20-Dec-2017

 -------------------------
 #P B3LYP/6-311+g(d) force
 -------------------------

 ------------------------------
 Gaussian input prepared by ASE
 ------------------------------
 Symbolic Z-matrix:
 Charge =  0 Multiplicity = 2

                         Standard orientation:
 ---------------------------------------------------------------------
 Center     Atomic      Atomic             Coordinates (Angstroms)
 Number     Number       Type             X           Y           Z
 ---------------------------------------------------------------------
      1         11           0        0.843460   -0.985248    1.505791
      2         11           0        0.662413   -0.827645   -1.474739
      3         11           0        3.314955   -1.298625   -0.160823
      4         11           0        1.993008    1.380892    0.064203
      5         11           0       -0.652761    2.801280   -0.048490
      6         11           0       -1.686419   -0.010839    0.211850
      7         11           0       -4.474656   -1.059814   -0.097793
 ---------------------------------------------------------------------

 SCF Done:  E(UB3LYP) =  -1136.09117502     A.U. after   29 cycles

 The electronic state is 2-A.
 Alpha  occ. eigenvalues --  -38.45143 -38.44924 -38.44504 -38.43948 -38.43884
 Alpha  occ. eigenvalues --  -38.43307 -38.43195  -2.20987  -2.20918  -2.20498
 Alpha  occ. eigenvalues --   -2.20047  -2.19979  -2.19264  -2.19209  -1.14751
 Alpha  occ. eigenvalues --   -1.14685  -1.14624  -1.14593  -1.14567  -1.14562
 Alpha  occ. eigenvalues --   -1.14233  -1.14153  -1.14118  -1.13809  -1.13708
 Alpha  occ. eigenvalues --   -1.13682  -1.13674  -1.13562  -1.13521  -1.13023
 Alpha  occ. eigenvalues --   -1.12987  -1.12908  -1.12862  -1.12825  -1.12748
 Alpha  occ. eigenvalues --   -0.20087  -0.14146  -0.11950  -0.10718
 Alpha virt. eigenvalues --   -0.07749  -0.05121  -0.03624  -0.03387  -0.02963
 Alpha virt. eigenvalues --   -0.01950  -0.01898  -0.01395  -0.00419  -0.00283
 Alpha virt. eigenvalues --   -0.00196   0.00368   0.00407   0.00614   0.00789

  Beta  occ. eigenvalues --  -38.45165 -38.44863 -38.44487 -38.43917 -38.43790
  Beta  occ. eigenvalues --  -38.43308 -38.43174  -2.20958  -2.20880  -2.20474
  Beta  occ. eigenvalues --   -2.19999  -2.19809  -2.19233  -2.19210  -1.14679
  Beta  occ. eigenvalues --   -1.14652  -1.14593  -1.14592  -1.14589  -1.14506
  Beta  occ. eigenvalues --   -1.14216  -1.14131  -1.14056  -1.13758  -1.13666
  Beta  occ. eigenvalues --   -1.13609  -1.13562  -1.13454  -1.13401  -1.13012
  Beta  occ. eigenvalues --   -1.12980  -1.12863  -1.12840  -1.12808  -1.12742
  Beta  occ. eigenvalues --   -0.19221  -0.13985  -0.11784
  Beta virt. eigenvalues --   -0.07570  -0.06551  -0.05039  -0.03499  -0.02887
  Beta virt. eigenvalues --   -0.02717  -0.01404  -0.01358  -0.00968  -0.00306
  Beta virt. eigenvalues --   -0.00162  -0.00050   0.00439   0.00631   0.00672

 Mulliken charges and spin densities:
               1          2
     1  Na   0.144493   0.133603
     2  Na  -0.632652   0.258050
     3  Na   1.303895   0.148965
     4  Na   0.203841   0.506446
     5  Na   0.297429  -0.173138
     6  Na  -0.558168   0.329522
     7  Na  -0.758837  -0.203447
 Sum of Mulliken charges =  -0.00000   1.00000

 Dipole moment (field-independent basis, Debye):
    X=              0.0974    Y=              0.0093    Z=              0.0540  Tot=              0.1118
 Quadrupole moment (field-independent basis, Debye-Ang):
   XX=            -47.6621   YY=            -68.7811   ZZ=            -75.2898
   XY=             -1.3676   XZ=              1.3806   YZ=              1.1158

 Normal termination of Gaussian 16 at Mon Nov 13 16:37:19 2023.
