 Gaussian 16, Revision B.01,
 Gaussian 16:  ES64L-G16RevB.01 20-Dec-2017

 -------------------------
 #P B3LYP/6-311+g(d) force
 -------------------------

 ------------------------------
 Gaussian input prepared by ASE
 ------------------------------
 Symbolic Z-matrix:
 Charge =  0 Multiplicity = 2

                         Standard orientation:
 ---------------------------------------------------------------------
 Center     Atomic      Atomic             Coordinates (Angstroms)
 Number     Number       Type             X           Y           Z
 ---------------------------------------------------------------------
      1         11           0       -0.808510   -1.201414   -2.058479
      2         11           0       -1.262115   -0.578792    2.193283
      3         11           0        3.945834   -1.162150    0.044600
      4         11           0        0.972856   -1.370923    0.351586
      5         11           0       -3.077337   -0.573535   -0.196823
      6         11           0       -0.604097    1.126965   -0.179930
      7         11           0        0.833369    3.759850   -0.154238
 ---------------------------------------------------------------------

 SCF Done:  E(UB3LYP) =  -1136.09006433     A.U. after   27 cycles

 The electronic state is 2-A.
 Alpha  occ. eigenvalues --  -38.45382 -38.45222 -38.45146 -38.44988 -38.43474
 Alpha  occ. eigenvalues --  -38.42852 -38.42600  -2.21380  -2.21214  -2.20972
 Alpha  occ. eigenvalues --   -2.20917  -2.19525  -2.18771  -2.18650  -1.15087
 Alpha  occ. eigenvalues --   -1.15052  -1.14962  -1.14943  -1.14881  -1.14820
 Alpha  occ. eigenvalues --   -1.14642  -1.14619  -1.14602  -1.14567  -1.14561
 Alpha  occ. eigenvalues --   -1.14552  -1.13242  -1.13212  -1.13118  -1.12515
 Alpha  occ. eigenvalues --   -1.12456  -1.12418  -1.12295  -1.12291  -1.12241
 Alpha  occ. eigenvalues --   -0.19923  -0.13051  -0.12478  -0.11425
 Alpha virt. eigenvalues --   -0.07000  -0.05180  -0.03797  -0.03622  -0.02726
 Alpha virt. eigenvalues --   -0.02435  -0.02362  -0.00769  -0.00558  -0.00043
 Alpha virt. eigenvalues --    0.00056   0.00145   0.00553   0.00592   0.00901

  Beta  occ. eigenvalues --  -38.45270 -38.45167 -38.45126 -38.44965 -38.43448
  Beta  occ. eigenvalues --  -38.42861 -38.42574  -2.21176  -2.21041  -2.20957
  Beta  occ. eigenvalues --   -2.20938  -2.19483  -2.18732  -2.18666  -1.14962
  Beta  occ. eigenvalues --   -1.14905  -1.14839  -1.14819  -1.14760  -1.14696
  Beta  occ. eigenvalues --   -1.14644  -1.14616  -1.14592  -1.14588  -1.14534
  Beta  occ. eigenvalues --   -1.14497  -1.13225  -1.13127  -1.13099  -1.12514
  Beta  occ. eigenvalues --   -1.12392  -1.12362  -1.12302  -1.12302  -1.12244
  Beta  occ. eigenvalues --   -0.18927  -0.12950  -0.11342
  Beta virt. eigenvalues --   -0.08164  -0.06794  -0.04873  -0.02941  -0.02764
  Beta virt. eigenvalues --   -0.02663  -0.02385  -0.01698  -0.00723  -0.00277
  Beta virt. eigenvalues --    0.00052   0.00096   0.00311   0.00603   0.00644

 Mulliken charges and spin densities:
               1          2
     1  Na   1.099592   0.219259
     2  Na   1.351193   0.248600
     3  Na  -0.150507  -0.135960
     4  Na  -0.532195   0.144912
     5  Na   1.283817   0.033829
     6  Na  -4.045269   0.881208
     7  Na   0.993368  -0.391849
 Sum of Mulliken charges =  -0.00000   1.00000

 Dipole moment (field-independent basis, Debye):
    X=             -0.1005    Y=             -1.2408    Z=              0.0042  Tot=              1.2449
 Quadrupole moment (field-independent basis, Debye-Ang):
   XX=            -51.3015   YY=            -75.6189   ZZ=            -65.9022
   XY=              2.6622   XZ=             -0.9379   YZ=              0.7302

 Normal termination of Gaussian 16 at Mon Nov 13 19:07:45 2023.
