 Gaussian 16, Revision B.01,
 Gaussian 16:  ES64L-G16RevB.01 20-Dec-2017

 -------------------------
 #P B3LYP/6-311+g(d) force
 -------------------------

 ------------------------------
 Gaussian input prepared by ASE
 ------------------------------
 Symbolic Z-matrix:
 Charge =  0 Multiplicity = 2

                         Standard orientation:
 ---------------------------------------------------------------------
 Center     Atomic      Atomic             Coordinates (Angstroms)
 Number     Number       Type             X           Y           Z
 ---------------------------------------------------------------------
      1         11           0        3.428742   -2.524466   -0.211116
      2         11           0       -4.209390    1.753330    0.080908
      3         11           0       -4.587826   -1.196035    0.465112
      4         11           0       -2.027876   -0.154050   -0.702801
      5         11           0        0.782114   -1.123727   -0.284900
      6         11           0        3.167531    0.246760    0.910128
      7         11           0        3.446704    2.998188   -0.257330
 ---------------------------------------------------------------------

 SCF Done:  E(UB3LYP) =  -1136.09109884     A.U. after   30 cycles

 The electronic state is 2-A.
 Alpha  occ. eigenvalues --  -38.46763 -38.46282 -38.44201 -38.43835 -38.42944
 Alpha  occ. eigenvalues --  -38.42696 -38.41975  -2.22651  -2.22168  -2.20224
 Alpha  occ. eigenvalues --   -2.19754  -2.18931  -2.18680  -2.17793  -1.16352
 Alpha  occ. eigenvalues --   -1.16310  -1.16282  -1.15858  -1.15799  -1.15786
 Alpha  occ. eigenvalues --   -1.13910  -1.13878  -1.13839  -1.13459  -1.13400
 Alpha  occ. eigenvalues --   -1.13359  -1.12677  -1.12599  -1.12551  -1.12355
 Alpha  occ. eigenvalues --   -1.12332  -1.12308  -1.11462  -1.11435  -1.11432
 Alpha  occ. eigenvalues --   -0.17798  -0.15720  -0.11219  -0.10468
 Alpha virt. eigenvalues --   -0.07424  -0.05173  -0.04409  -0.04040  -0.02931
 Alpha virt. eigenvalues --   -0.02200  -0.01897  -0.01375  -0.00884  -0.00436
 Alpha virt. eigenvalues --   -0.00187  -0.00045   0.00168   0.00226   0.00291

  Beta  occ. eigenvalues --  -38.46734 -38.46269 -38.44130 -38.43767 -38.42916
  Beta  occ. eigenvalues --  -38.42685 -38.41963  -2.22600  -2.22146  -2.20099
  Beta  occ. eigenvalues --   -2.19627  -2.18891  -2.18665  -2.17770  -1.16325
  Beta  occ. eigenvalues --   -1.16258  -1.16240  -1.15839  -1.15787  -1.15755
  Beta  occ. eigenvalues --   -1.13801  -1.13791  -1.13758  -1.13376  -1.13315
  Beta  occ. eigenvalues --   -1.13273  -1.12641  -1.12550  -1.12504  -1.12327
  Beta  occ. eigenvalues --   -1.12318  -1.12286  -1.11447  -1.11420  -1.11415
  Beta  occ. eigenvalues --   -0.17215  -0.15180  -0.10271
  Beta virt. eigenvalues --   -0.07421  -0.07245  -0.04871  -0.04007  -0.03760
  Beta virt. eigenvalues --   -0.02766  -0.01832  -0.01596  -0.00937  -0.00629
  Beta virt. eigenvalues --   -0.00194  -0.00106   0.00138   0.00226   0.00367

 Mulliken charges and spin densities:
               1          2
     1  Na   2.628470   0.528756
     2  Na   0.486246   0.336789
     3  Na   0.557914   0.330108
     4  Na  -2.901501  -0.596575
     5  Na  -0.612053   0.277657
     6  Na  -0.122954   0.057573
     7  Na  -0.036122   0.065691
 Sum of Mulliken charges =  -0.00000   1.00000

 Dipole moment (field-independent basis, Debye):
    X=             -5.1951    Y=             -1.1755    Z=             -0.0118  Tot=              5.3265
 Quadrupole moment (field-independent basis, Debye-Ang):
   XX=            -59.2836   YY=            -65.7601   ZZ=            -71.1676
   XY=             -6.5462   XZ=             -3.1011   YZ=             -3.5057

 Normal termination of Gaussian 16 at Mon Nov 13 15:32:07 2023.
