 Gaussian 16, Revision B.01,
 Gaussian 16:  ES64L-G16RevB.01 20-Dec-2017

 -------------------------
 #P B3LYP/6-311+g(d) force
 -------------------------

 ------------------------------
 Gaussian input prepared by ASE
 ------------------------------
 Symbolic Z-matrix:
 Charge =  0 Multiplicity = 2

                         Standard orientation:
 ---------------------------------------------------------------------
 Center     Atomic      Atomic             Coordinates (Angstroms)
 Number     Number       Type             X           Y           Z
 ---------------------------------------------------------------------
      1         11           0       -0.976454    0.612193    1.755072
      2         11           0        0.026490   -1.458556   -1.540915
      3         11           0       -1.578152   -2.196630    0.885813
      4         11           0       -2.427824    0.113048   -0.819401
      5         11           0       -0.788385    2.601314   -0.470695
      6         11           0        1.467648    0.680075    0.007491
      7         11           0        4.276676   -0.351444    0.182635
 ---------------------------------------------------------------------

 SCF Done:  E(UB3LYP) =  -1136.10126530     A.U. after   22 cycles

 The electronic state is 2-A.
 Alpha  occ. eigenvalues --  -38.44952 -38.44315 -38.44087 -38.43897 -38.43474
 Alpha  occ. eigenvalues --  -38.43140 -38.43085  -2.20736  -2.20417  -2.20079
 Alpha  occ. eigenvalues --   -2.20004  -2.19476  -2.19155  -2.19135  -1.14436
 Alpha  occ. eigenvalues --   -1.14384  -1.14370  -1.14177  -1.14125  -1.14073
 Alpha  occ. eigenvalues --   -1.13784  -1.13730  -1.13703  -1.13675  -1.13662
 Alpha  occ. eigenvalues --   -1.13625  -1.13142  -1.13097  -1.13091  -1.12930
 Alpha  occ. eigenvalues --   -1.12829  -1.12819  -1.12793  -1.12749  -1.12666
 Alpha  occ. eigenvalues --   -0.20110  -0.13289  -0.12472  -0.11635
 Alpha virt. eigenvalues --   -0.06865  -0.04312  -0.03640  -0.03346  -0.03010
 Alpha virt. eigenvalues --   -0.02592  -0.02118  -0.00776  -0.00293  -0.00055
 Alpha virt. eigenvalues --    0.00162   0.00369   0.00469   0.00825   0.01136

  Beta  occ. eigenvalues --  -38.44961 -38.44278 -38.44031 -38.43817 -38.43445
  Beta  occ. eigenvalues --  -38.43127 -38.43070  -2.20754  -2.20356  -2.19980
  Beta  occ. eigenvalues --   -2.19860  -2.19427  -2.19132  -2.19114  -1.14448
  Beta  occ. eigenvalues --   -1.14395  -1.14382  -1.14140  -1.14043  -1.14014
  Beta  occ. eigenvalues --   -1.13723  -1.13661  -1.13611  -1.13590  -1.13556
  Beta  occ. eigenvalues --   -1.13522  -1.13110  -1.13067  -1.13018  -1.12917
  Beta  occ. eigenvalues --   -1.12817  -1.12782  -1.12763  -1.12705  -1.12654
  Beta  occ. eigenvalues --   -0.19259  -0.13125  -0.12293
  Beta virt. eigenvalues --   -0.07384  -0.06666  -0.04261  -0.03542  -0.02659
  Beta virt. eigenvalues --   -0.02457  -0.02120  -0.01386  -0.00732  -0.00087
  Beta virt. eigenvalues --   -0.00013   0.00235   0.00446   0.00627   0.00855

 Mulliken charges and spin densities:
               1          2
     1  Na  -0.930866   0.256888
     2  Na  -0.384305   0.256519
     3  Na   0.104536  -0.015850
     4  Na   0.845015   0.345043
     5  Na   1.483274   0.182473
     6  Na  -0.603327   0.163816
     7  Na  -0.514327  -0.188889
 Sum of Mulliken charges =  -0.00000   1.00000

 Dipole moment (field-independent basis, Debye):
    X=              0.3657    Y=             -0.2998    Z=             -0.0740  Tot=              0.4786
 Quadrupole moment (field-independent basis, Debye-Ang):
   XX=            -54.8231   YY=            -68.3282   ZZ=            -69.8975
   XY=             -2.0354   XZ=              1.2332   YZ=             -1.9672

 Normal termination of Gaussian 16 at Mon Nov 13 16:41:37 2023.
