 Gaussian 16, Revision B.01,
 Gaussian 16:  ES64L-G16RevB.01 20-Dec-2017

 -------------------------
 #P B3LYP/6-311+g(d) force
 -------------------------

 ------------------------------
 Gaussian input prepared by ASE
 ------------------------------
 Symbolic Z-matrix:
 Charge =  0 Multiplicity = 2

                         Standard orientation:
 ---------------------------------------------------------------------
 Center     Atomic      Atomic             Coordinates (Angstroms)
 Number     Number       Type             X           Y           Z
 ---------------------------------------------------------------------
      1         11           0        1.681950    2.426481   -0.819452
      2         11           0       -2.611653    1.651438    1.011999
      3         11           0       -4.342886   -0.602836    0.053221
      4         11           0       -1.855137   -2.151028   -0.602580
      5         11           0       -0.141359    0.222484    0.074872
      6         11           0        2.619675   -0.416412   -0.903696
      7         11           0        4.649411   -1.130127    1.185636
 ---------------------------------------------------------------------

 SCF Done:  E(UB3LYP) =  -1136.09673827     A.U. after   30 cycles

 The electronic state is 2-A.
 Alpha  occ. eigenvalues --  -38.44976 -38.44742 -38.44536 -38.44025 -38.43862
 Alpha  occ. eigenvalues --  -38.43740 -38.43731  -2.20871  -2.20631  -2.20434
 Alpha  occ. eigenvalues --   -2.19954  -2.19936  -2.19714  -2.19565  -1.14587
 Alpha  occ. eigenvalues --   -1.14551  -1.14512  -1.14372  -1.14268  -1.14254
 Alpha  occ. eigenvalues --   -1.14154  -1.14075  -1.14030  -1.13747  -1.13688
 Alpha  occ. eigenvalues --   -1.13587  -1.13553  -1.13547  -1.13481  -1.13450
 Alpha  occ. eigenvalues --   -1.13366  -1.13354  -1.13190  -1.13187  -1.13155
 Alpha  occ. eigenvalues --   -0.18226  -0.15207  -0.11529  -0.11178
 Alpha virt. eigenvalues --   -0.06960  -0.05191  -0.04421  -0.03507  -0.03152
 Alpha virt. eigenvalues --   -0.02275  -0.01860  -0.01443  -0.00611  -0.00366
 Alpha virt. eigenvalues --   -0.00106  -0.00027   0.00372   0.00458   0.00656

  Beta  occ. eigenvalues --  -38.44962 -38.44723 -38.44494 -38.43966 -38.43837
  Beta  occ. eigenvalues --  -38.43737 -38.43660  -2.20849  -2.20596  -2.20357
  Beta  occ. eigenvalues --   -2.19911  -2.19830  -2.19719  -2.19435  -1.14554
  Beta  occ. eigenvalues --   -1.14522  -1.14501  -1.14344  -1.14252  -1.14230
  Beta  occ. eigenvalues --   -1.14108  -1.14024  -1.13975  -1.13691  -1.13641
  Beta  occ. eigenvalues --   -1.13553  -1.13491  -1.13477  -1.13415  -1.13411
  Beta  occ. eigenvalues --   -1.13363  -1.13344  -1.13101  -1.13098  -1.13081
  Beta  occ. eigenvalues --   -0.17705  -0.14747  -0.11039
  Beta virt. eigenvalues --   -0.07557  -0.06851  -0.04685  -0.04130  -0.03258
  Beta virt. eigenvalues --   -0.02929  -0.01938  -0.01495  -0.01069  -0.00377
  Beta virt. eigenvalues --   -0.00173   0.00055   0.00072   0.00522   0.00562

 Mulliken charges and spin densities:
               1          2
     1  Na   0.753560   0.173788
     2  Na   2.502220   0.765376
     3  Na  -0.300231   0.117527
     4  Na   0.984160   0.084383
     5  Na  -3.964170  -0.104182
     6  Na  -0.602474  -0.397269
     7  Na   0.626936   0.360377
 Sum of Mulliken charges =  -0.00000   1.00000

 Dipole moment (field-independent basis, Debye):
    X=             -1.1160    Y=              0.8153    Z=             -0.1760  Tot=              1.3933
 Quadrupole moment (field-independent basis, Debye-Ang):
   XX=            -62.7514   YY=            -69.5208   ZZ=            -67.6396
   XY=              6.9347   XZ=              0.5557   YZ=             -1.5528

 Normal termination of Gaussian 16 at Mon Nov 13 15:47:08 2023.
