 Gaussian 16, Revision B.01,
 Gaussian 16:  ES64L-G16RevB.01 20-Dec-2017

 -------------------------
 #P B3LYP/6-311+g(d) force
 -------------------------

 ------------------------------
 Gaussian input prepared by ASE
 ------------------------------
 Symbolic Z-matrix:
 Charge =  0 Multiplicity = 2

                         Standard orientation:
 ---------------------------------------------------------------------
 Center     Atomic      Atomic             Coordinates (Angstroms)
 Number     Number       Type             X           Y           Z
 ---------------------------------------------------------------------
      1         11           0        0.673147   -0.555874   -0.882891
      2         11           0       -1.194323   -0.236270    1.448351
      3         11           0       -3.764537   -1.190960    0.229452
      4         11           0       -2.008622    0.733250   -1.265379
      5         11           0        0.149968    2.164539    0.252975
      6         11           0        2.925704    1.021100    0.313159
      7         11           0        3.218663   -1.935785   -0.095668
 ---------------------------------------------------------------------

 SCF Done:  E(UB3LYP) =  -1136.09242818     A.U. after   26 cycles

 The electronic state is 2-A.
 Alpha  occ. eigenvalues --  -38.45053 -38.44495 -38.44415 -38.43924 -38.43853
 Alpha  occ. eigenvalues --  -38.43551 -38.42424  -2.21029  -2.20491  -2.20387
 Alpha  occ. eigenvalues --   -2.20101  -2.19959  -2.19453  -2.18512  -1.14763
 Alpha  occ. eigenvalues --   -1.14691  -1.14657  -1.14281  -1.14240  -1.14141
 Alpha  occ. eigenvalues --   -1.14087  -1.14004  -1.13954  -1.13858  -1.13766
 Alpha  occ. eigenvalues --   -1.13739  -1.13604  -1.13568  -1.13540  -1.13122
 Alpha  occ. eigenvalues --   -1.13108  -1.13071  -1.12204  -1.12188  -1.12118
 Alpha  occ. eigenvalues --   -0.19925  -0.15069  -0.11803  -0.10702
 Alpha virt. eigenvalues --   -0.07156  -0.05410  -0.04015  -0.03241  -0.02829
 Alpha virt. eigenvalues --   -0.02096  -0.01876  -0.01138  -0.00331  -0.00220
 Alpha virt. eigenvalues --    0.00010   0.00371   0.00587   0.00663   0.00844

  Beta  occ. eigenvalues --  -38.45042 -38.44485 -38.44360 -38.43876 -38.43794
  Beta  occ. eigenvalues --  -38.43552 -38.42407  -2.21010  -2.20393  -2.20369
  Beta  occ. eigenvalues --   -2.20019  -2.19855  -2.19455  -2.18488  -1.14752
  Beta  occ. eigenvalues --   -1.14683  -1.14626  -1.14212  -1.14189  -1.14076
  Beta  occ. eigenvalues --   -1.14061  -1.13989  -1.13906  -1.13784  -1.13691
  Beta  occ. eigenvalues --   -1.13675  -1.13540  -1.13492  -1.13448  -1.13123
  Beta  occ. eigenvalues --   -1.13104  -1.13069  -1.12195  -1.12178  -1.12043
  Beta  occ. eigenvalues --   -0.19220  -0.14855  -0.11518
  Beta virt. eigenvalues --   -0.07034  -0.06664  -0.05284  -0.03460  -0.03086
  Beta virt. eigenvalues --   -0.02694  -0.01460  -0.01331  -0.00774  -0.00229
  Beta virt. eigenvalues --    0.00005   0.00100   0.00407   0.00722   0.00788

 Mulliken charges and spin densities:
               1          2
     1  Na  -2.127291   0.217856
     2  Na  -0.385583   0.471111
     3  Na   0.036306  -0.050249
     4  Na   1.508302   0.028664
     5  Na  -0.178845   0.153534
     6  Na   0.137172   0.086096
     7  Na   1.009938   0.092988
 Sum of Mulliken charges =  -0.00000   1.00000

 Dipole moment (field-independent basis, Debye):
    X=             -0.0258    Y=              0.2618    Z=              0.0884  Tot=              0.2776
 Quadrupole moment (field-independent basis, Debye-Ang):
   XX=            -52.1250   YY=            -68.2440   ZZ=            -74.9428
   XY=              2.3064   XZ=              3.4368   YZ=             -1.4600

 Normal termination of Gaussian 16 at Mon Nov 13 16:34:07 2023.
