 Gaussian 16, Revision B.01,
 Gaussian 16:  ES64L-G16RevB.01 20-Dec-2017

 -------------------------
 #P B3LYP/6-311+g(d) force
 -------------------------

 ------------------------------
 Gaussian input prepared by ASE
 ------------------------------
 Symbolic Z-matrix:
 Charge =  0 Multiplicity = 2

                         Standard orientation:
 ---------------------------------------------------------------------
 Center     Atomic      Atomic             Coordinates (Angstroms)
 Number     Number       Type             X           Y           Z
 ---------------------------------------------------------------------
      1         11           0       -0.000552   -0.002448   -1.347355
      2         11           0       -0.014750   -0.992879    1.473604
      3         11           0        2.126585   -1.909632   -0.420787
      4         11           0        2.118824    0.916050    0.566142
      5         11           0        0.044340    2.849882   -0.418358
      6         11           0       -2.088057    0.982524    0.566330
      7         11           0       -2.186389   -1.843497   -0.419576
 ---------------------------------------------------------------------

 SCF Done:  E(UB3LYP) =  -1136.10596049     A.U. after   20 cycles

 The electronic state is 2-A.
 Alpha  occ. eigenvalues --  -38.43736 -38.43735 -38.43508 -38.43507 -38.43427
 Alpha  occ. eigenvalues --  -38.43196 -38.42987  -2.19723  -2.19720  -2.19583
 Alpha  occ. eigenvalues --   -2.19582  -2.19408  -2.19389  -2.19283  -1.13573
 Alpha  occ. eigenvalues --   -1.13571  -1.13423  -1.13408  -1.13390  -1.13384
 Alpha  occ. eigenvalues --   -1.13371  -1.13324  -1.13286  -1.13264  -1.13180
 Alpha  occ. eigenvalues --   -1.13179  -1.13105  -1.13081  -1.12993  -1.12987
 Alpha  occ. eigenvalues --   -1.12963  -1.12933  -1.12890  -1.12859  -1.12827
 Alpha  occ. eigenvalues --   -0.20605  -0.13553  -0.13222  -0.11075
 Alpha virt. eigenvalues --   -0.05057  -0.04936  -0.04453  -0.03254  -0.02905
 Alpha virt. eigenvalues --   -0.02036  -0.01117  -0.01112  -0.00068   0.00373
 Alpha virt. eigenvalues --    0.00419   0.00555   0.00938   0.00965   0.01030

  Beta  occ. eigenvalues --  -38.43724 -38.43723 -38.43488 -38.43487 -38.43420
  Beta  occ. eigenvalues --  -38.43127 -38.42917  -2.19705  -2.19702  -2.19552
  Beta  occ. eigenvalues --   -2.19551  -2.19397  -2.19266  -2.19160  -1.13554
  Beta  occ. eigenvalues --   -1.13552  -1.13396  -1.13379  -1.13364  -1.13356
  Beta  occ. eigenvalues --   -1.13337  -1.13307  -1.13233  -1.13219  -1.13149
  Beta  occ. eigenvalues --   -1.13145  -1.13066  -1.13021  -1.12985  -1.12967
  Beta  occ. eigenvalues --   -1.12867  -1.12854  -1.12798  -1.12777  -1.12744
  Beta  occ. eigenvalues --   -0.19830  -0.13246  -0.12962
  Beta virt. eigenvalues --   -0.06941  -0.05030  -0.04911  -0.04429  -0.02387
  Beta virt. eigenvalues --   -0.02175  -0.01073  -0.01063  -0.00962   0.00124
  Beta virt. eigenvalues --    0.00380   0.00424   0.00560   0.00945   0.00971

 Mulliken charges and spin densities:
               1          2
     1  Na  -1.151498   0.165774
     2  Na  -0.248462   0.108910
     3  Na   0.336020   0.122766
     4  Na   0.042624   0.243571
     5  Na   0.644330  -0.006702
     6  Na   0.042034   0.243352
     7  Na   0.334953   0.122330
 Sum of Mulliken charges =  -0.00000   1.00000

 Dipole moment (field-independent basis, Debye):
    X=             -0.0049    Y=             -0.2601    Z=              0.0175  Tot=              0.2608
 Quadrupole moment (field-independent basis, Debye-Ang):
   XX=            -60.7200   YY=            -59.7015   ZZ=            -73.1121
   XY=              0.0267   XZ=              0.0234   YZ=              1.5807

 Normal termination of Gaussian 16 at Mon Nov 13 17:10:19 2023.
