 Gaussian 16, Revision B.01,
 Gaussian 16:  ES64L-G16RevB.01 20-Dec-2017

 -------------------------
 #P B3LYP/6-311+g(d) force
 -------------------------

 ------------------------------
 Gaussian input prepared by ASE
 ------------------------------
 Symbolic Z-matrix:
 Charge =  0 Multiplicity = 2

                         Standard orientation:
 ---------------------------------------------------------------------
 Center     Atomic      Atomic             Coordinates (Angstroms)
 Number     Number       Type             X           Y           Z
 ---------------------------------------------------------------------
      1         11           0        0.351289   -0.328386   -0.653909
      2         11           0        1.837727   -2.144443    1.218767
      3         11           0        3.333115   -0.154331   -0.445866
      4         11           0        1.660964    2.295898   -0.018432
      5         11           0       -1.311704    2.015979    0.226016
      6         11           0       -3.672919    0.204942    0.620446
      7         11           0       -2.198471   -1.889660   -0.947022
 ---------------------------------------------------------------------

 SCF Done:  E(UB3LYP) =  -1136.09984935     A.U. after   23 cycles

 The electronic state is 2-A.
 Alpha  occ. eigenvalues --  -38.44906 -38.44407 -38.44196 -38.43905 -38.43772
 Alpha  occ. eigenvalues --  -38.43655 -38.43118  -2.20887  -2.20298  -2.20101
 Alpha  occ. eigenvalues --   -2.19827  -2.19746  -2.19633  -2.19330  -1.14609
 Alpha  occ. eigenvalues --   -1.14562  -1.14526  -1.14009  -1.13931  -1.13908
 Alpha  occ. eigenvalues --   -1.13824  -1.13799  -1.13720  -1.13623  -1.13527
 Alpha  occ. eigenvalues --   -1.13447  -1.13425  -1.13384  -1.13368  -1.13340
 Alpha  occ. eigenvalues --   -1.13240  -1.13212  -1.12986  -1.12977  -1.12912
 Alpha  occ. eigenvalues --   -0.19053  -0.15011  -0.12555  -0.10014
 Alpha virt. eigenvalues --   -0.07038  -0.05366  -0.04315  -0.03501  -0.02872
 Alpha virt. eigenvalues --   -0.02381  -0.01609  -0.00996  -0.00565  -0.00130
 Alpha virt. eigenvalues --    0.00047   0.00106   0.00559   0.00684   0.00703

  Beta  occ. eigenvalues --  -38.44886 -38.44388 -38.44159 -38.43839 -38.43755
  Beta  occ. eigenvalues --  -38.43651 -38.43069  -2.20852  -2.20265  -2.20040
  Beta  occ. eigenvalues --   -2.19725  -2.19703  -2.19627  -2.19243  -1.14590
  Beta  occ. eigenvalues --   -1.14532  -1.14485  -1.13990  -1.13911  -1.13863
  Beta  occ. eigenvalues --   -1.13762  -1.13743  -1.13682  -1.13560  -1.13492
  Beta  occ. eigenvalues --   -1.13379  -1.13356  -1.13345  -1.13331  -1.13326
  Beta  occ. eigenvalues --   -1.13230  -1.13178  -1.12938  -1.12907  -1.12844
  Beta  occ. eigenvalues --   -0.18597  -0.14432  -0.12224
  Beta virt. eigenvalues --   -0.06981  -0.06344  -0.05161  -0.04146  -0.02946
  Beta virt. eigenvalues --   -0.02468  -0.02142  -0.01223  -0.00726  -0.00247
  Beta virt. eigenvalues --   -0.00058   0.00243   0.00285   0.00745   0.00773

 Mulliken charges and spin densities:
               1          2
     1  Na  -2.131017   0.197436
     2  Na   0.215817  -0.026970
     3  Na   0.916605   0.352563
     4  Na   0.357230  -0.049189
     5  Na   0.147423   0.167795
     6  Na   0.260659   0.219387
     7  Na   0.233283   0.138979
 Sum of Mulliken charges =  -0.00000   1.00000

 Dipole moment (field-independent basis, Debye):
    X=              0.8896    Y=             -0.5128    Z=             -0.1446  Tot=              1.0369
 Quadrupole moment (field-independent basis, Debye-Ang):
   XX=            -61.6284   YY=            -68.7186   ZZ=            -69.7834
   XY=              7.5783   XZ=             -0.5311   YZ=             -1.4675

 Normal termination of Gaussian 16 at Mon Nov 13 14:59:06 2023.
