 Gaussian 16, Revision B.01,
 Gaussian 16:  ES64L-G16RevB.01 20-Dec-2017

 -------------------------
 #P B3LYP/6-311+g(d) force
 -------------------------

 ------------------------------
 Gaussian input prepared by ASE
 ------------------------------
 Symbolic Z-matrix:
 Charge =  0 Multiplicity = 2

                         Standard orientation:
 ---------------------------------------------------------------------
 Center     Atomic      Atomic             Coordinates (Angstroms)
 Number     Number       Type             X           Y           Z
 ---------------------------------------------------------------------
      1         11           0       -0.006910   -1.918534    0.317421
      2         11           0       -0.002071   -0.082288   -1.827384
      3         11           0        2.151822   -0.776484   -0.140971
      4         11           0       -2.158141   -0.762296   -0.140287
      5         11           0        0.001291    0.208668    1.881534
      6         11           0        1.329224    1.661189   -0.046217
      7         11           0       -1.315215    1.669746   -0.044097
 ---------------------------------------------------------------------

 SCF Done:  E(UB3LYP) =  -1136.01860795     A.U. after   21 cycles

 The electronic state is 2-A.
 Alpha  occ. eigenvalues --  -38.45297 -38.45080 -38.44818 -38.44677 -38.44677
 Alpha  occ. eigenvalues --  -38.44233 -38.44230  -2.21633  -2.21451  -2.21242
 Alpha  occ. eigenvalues --   -2.20952  -2.20899  -2.20563  -2.20474  -1.15685
 Alpha  occ. eigenvalues --   -1.15611  -1.15460  -1.15373  -1.15251  -1.15216
 Alpha  occ. eigenvalues --   -1.15198  -1.14969  -1.14864  -1.14801  -1.14643
 Alpha  occ. eigenvalues --   -1.14483  -1.14440  -1.14433  -1.14338  -1.14121
 Alpha  occ. eigenvalues --   -1.14105  -1.14049  -1.13976  -1.13969  -1.13769
 Alpha  occ. eigenvalues --   -0.22979  -0.13963  -0.13420  -0.13211
 Alpha virt. eigenvalues --   -0.05226  -0.04075  -0.03936  -0.03925  -0.03669
 Alpha virt. eigenvalues --   -0.03221  -0.00649  -0.00319  -0.00240   0.00282
 Alpha virt. eigenvalues --    0.01075   0.01102   0.01172   0.01296   0.01322

  Beta  occ. eigenvalues --  -38.45188 -38.44974 -38.44792 -38.44661 -38.44661
  Beta  occ. eigenvalues --  -38.44214 -38.44212  -2.21442  -2.21272  -2.21193
  Beta  occ. eigenvalues --   -2.20932  -2.20876  -2.20539  -2.20450  -1.15610
  Beta  occ. eigenvalues --   -1.15595  -1.15328  -1.15271  -1.15156  -1.15098
  Beta  occ. eigenvalues --   -1.15075  -1.14931  -1.14798  -1.14755  -1.14533
  Beta  occ. eigenvalues --   -1.14456  -1.14358  -1.14350  -1.14325  -1.14106
  Beta  occ. eigenvalues --   -1.14013  -1.13973  -1.13961  -1.13954  -1.13761
  Beta  occ. eigenvalues --   -0.22067  -0.13515  -0.12823
  Beta virt. eigenvalues --   -0.09039  -0.05230  -0.03918  -0.03857  -0.03011
  Beta virt. eigenvalues --   -0.02664  -0.02233  -0.00585  -0.00279  -0.00059
  Beta virt. eigenvalues --    0.00303   0.01078   0.01106   0.01238   0.01332

 Mulliken charges and spin densities:
               1          2
     1  Na   0.227792   0.083580
     2  Na  -0.000898   0.462205
     3  Na  -0.058306  -0.003395
     4  Na  -0.057540  -0.003506
     5  Na  -0.090136   0.434813
     6  Na  -0.011213   0.013052
     7  Na  -0.009699   0.013250
 Sum of Mulliken charges =  -0.00000   1.00000

 Dipole moment (field-independent basis, Debye):
    X=              0.0005    Y=              0.1376    Z=              0.0306  Tot=              0.1410
 Quadrupole moment (field-independent basis, Debye-Ang):
   XX=            -65.4510   YY=            -71.4242   ZZ=            -64.8311
   XY=             -0.0010   XZ=             -0.0041   YZ=             -0.3509

 Normal termination of Gaussian 16 at Mon Nov 13 20:50:00 2023.
