 Gaussian 16, Revision B.01,
 Gaussian 16:  ES64L-G16RevB.01 20-Dec-2017

 -------------------------
 #P B3LYP/6-311+g(d) force
 -------------------------

 ------------------------------
 Gaussian input prepared by ASE
 ------------------------------
 Symbolic Z-matrix:
 Charge =  0 Multiplicity = 2

                         Standard orientation:
 ---------------------------------------------------------------------
 Center     Atomic      Atomic             Coordinates (Angstroms)
 Number     Number       Type             X           Y           Z
 ---------------------------------------------------------------------
      1         11           0        0.013391   -1.654597    0.000924
      2         11           0        0.018716    0.144749   -1.905206
      3         11           0        1.398949    1.644970    0.000188
      4         11           0        2.530186   -0.901129   -0.001804
      5         11           0        0.020235    0.141967    1.905594
      6         11           0       -2.499794   -0.903633   -0.001800
      7         11           0       -1.481683    1.527674    0.002103
 ---------------------------------------------------------------------

 SCF Done:  E(UB3LYP) =  -1136.05054901     A.U. after   21 cycles

 The electronic state is 2-A.
 Alpha  occ. eigenvalues --  -38.45067 -38.45060 -38.44424 -38.44228 -38.43935
 Alpha  occ. eigenvalues --  -38.43604 -38.43350  -2.21328  -2.21319  -2.20556
 Alpha  occ. eigenvalues --   -2.20368  -2.20271  -2.19859  -2.19573  -1.15262
 Alpha  occ. eigenvalues --   -1.15196  -1.15019  -1.15009  -1.14940  -1.14904
 Alpha  occ. eigenvalues --   -1.14633  -1.14423  -1.14222  -1.14102  -1.14058
 Alpha  occ. eigenvalues --   -1.13923  -1.13835  -1.13805  -1.13591  -1.13557
 Alpha  occ. eigenvalues --   -1.13477  -1.13385  -1.13219  -1.13212  -1.13086
 Alpha  occ. eigenvalues --   -0.22224  -0.14348  -0.12920  -0.12373
 Alpha virt. eigenvalues --   -0.05450  -0.04143  -0.03996  -0.03830  -0.03093
 Alpha virt. eigenvalues --   -0.02843  -0.01302  -0.00295  -0.00216   0.00299
 Alpha virt. eigenvalues --    0.00759   0.00944   0.01096   0.01128   0.01258

  Beta  occ. eigenvalues --  -38.44962 -38.44955 -38.44417 -38.44221 -38.43907
  Beta  occ. eigenvalues --  -38.43586 -38.43333  -2.21139  -2.21130  -2.20547
  Beta  occ. eigenvalues --   -2.20349  -2.20247  -2.19835  -2.19551  -1.15157
  Beta  occ. eigenvalues --   -1.15069  -1.14885  -1.14875  -1.14823  -1.14762
  Beta  occ. eigenvalues --   -1.14607  -1.14421  -1.14215  -1.14059  -1.14048
  Beta  occ. eigenvalues --   -1.13860  -1.13789  -1.13728  -1.13583  -1.13548
  Beta  occ. eigenvalues --   -1.13386  -1.13379  -1.13206  -1.13134  -1.13081
  Beta  occ. eigenvalues --   -0.21324  -0.13938  -0.11990
  Beta virt. eigenvalues --   -0.08649  -0.05480  -0.03989  -0.03491  -0.03110
  Beta virt. eigenvalues --   -0.02165  -0.02079  -0.01211  -0.00272  -0.00036
  Beta virt. eigenvalues --    0.00328   0.00796   0.00942   0.01109   0.01183

 Mulliken charges and spin densities:
               1          2
     1  Na  -0.253175   0.007821
     2  Na   0.244265   0.543694
     3  Na  -0.018441  -0.010043
     4  Na  -0.085178  -0.042847
     5  Na   0.244616   0.543393
     6  Na  -0.100707  -0.033004
     7  Na  -0.031379  -0.009013
 Sum of Mulliken charges =  -0.00000   1.00000

 Dipole moment (field-independent basis, Debye):
    X=              0.0886    Y=              0.1225    Z=             -0.0017  Tot=              0.1512
 Quadrupole moment (field-independent basis, Debye-Ang):
   XX=            -57.8983   YY=            -75.1937   ZZ=            -65.3491
   XY=              0.1297   XZ=             -0.0016   YZ=              0.0131

 Normal termination of Gaussian 16 at Mon Nov 13 20:37:21 2023.
