 Gaussian 16, Revision B.01,
 Gaussian 16:  ES64L-G16RevB.01 20-Dec-2017

 -------------------------
 #P B3LYP/6-311+g(d) force
 -------------------------

 ------------------------------
 Gaussian input prepared by ASE
 ------------------------------
 Symbolic Z-matrix:
 Charge =  0 Multiplicity = 2

                         Standard orientation:
 ---------------------------------------------------------------------
 Center     Atomic      Atomic             Coordinates (Angstroms)
 Number     Number       Type             X           Y           Z
 ---------------------------------------------------------------------
      1         11           0        0.599922    1.423246   -0.902430
      2         11           0        0.600089   -1.419785   -0.906484
      3         11           0        2.819781    0.000479    0.034227
      4         11           0        0.554210   -0.003011    1.682200
      5         11           0       -1.480961    1.466646    0.770294
      6         11           0       -1.613955    0.001101   -1.444309
      7         11           0       -1.479087   -1.468676    0.766501
 ---------------------------------------------------------------------

 SCF Done:  E(UB3LYP) =  -1136.02930989     A.U. after   25 cycles

 The electronic state is 2-A.
 Alpha  occ. eigenvalues --  -38.45353 -38.45151 -38.44618 -38.44165 -38.44165
 Alpha  occ. eigenvalues --  -38.43888 -38.43877  -2.21699  -2.21523  -2.20691
 Alpha  occ. eigenvalues --   -2.20452  -2.20433  -2.20254  -2.20212  -1.15663
 Alpha  occ. eigenvalues --   -1.15449  -1.15439  -1.15403  -1.15259  -1.15173
 Alpha  occ. eigenvalues --   -1.14563  -1.14363  -1.14335  -1.14294  -1.14274
 Alpha  occ. eigenvalues --   -1.14133  -1.14051  -1.14018  -1.14010  -1.13890
 Alpha  occ. eigenvalues --   -1.13793  -1.13779  -1.13721  -1.13662  -1.13591
 Alpha  occ. eigenvalues --   -0.22638  -0.14322  -0.13548  -0.12287
 Alpha virt. eigenvalues --   -0.05592  -0.04231  -0.04100  -0.03653  -0.03115
 Alpha virt. eigenvalues --   -0.02908  -0.01032  -0.00348  -0.00180   0.00261
 Alpha virt. eigenvalues --    0.00833   0.01065   0.01107   0.01113   0.01140

  Beta  occ. eigenvalues --  -38.45285 -38.45057 -38.44614 -38.44135 -38.44134
  Beta  occ. eigenvalues --  -38.43844 -38.43834  -2.21581  -2.21358  -2.20686
  Beta  occ. eigenvalues --   -2.20403  -2.20385  -2.20184  -2.20143  -1.15597
  Beta  occ. eigenvalues --   -1.15326  -1.15323  -1.15321  -1.15154  -1.15056
  Beta  occ. eigenvalues --   -1.14542  -1.14352  -1.14304  -1.14258  -1.14249
  Beta  occ. eigenvalues --   -1.14088  -1.13987  -1.13938  -1.13934  -1.13861
  Beta  occ. eigenvalues --   -1.13706  -1.13697  -1.13685  -1.13618  -1.13531
  Beta  occ. eigenvalues --   -0.21747  -0.14056  -0.12012
  Beta virt. eigenvalues --   -0.08918  -0.05538  -0.03643  -0.03477  -0.03396
  Beta virt. eigenvalues --   -0.02320  -0.02104  -0.00994  -0.00174  -0.00096
  Beta virt. eigenvalues --    0.00299   0.00922   0.01124   0.01132   0.01158

 Mulliken charges and spin densities:
               1          2
     1  Na  -0.668096   0.287190
     2  Na  -0.666501   0.287973
     3  Na   0.982346  -0.022286
     4  Na  -0.226616   0.182313
     5  Na   0.096866   0.094141
     6  Na   0.385215   0.076891
     7  Na   0.096787   0.093778
 Sum of Mulliken charges =  -0.00000   1.00000

 Dipole moment (field-independent basis, Debye):
    X=              0.4256    Y=              0.0023    Z=              0.1521  Tot=              0.4520
 Quadrupole moment (field-independent basis, Debye-Ang):
   XX=            -59.3418   YY=            -76.2432   ZZ=            -63.7236
   XY=             -0.0017   XZ=             -0.1944   YZ=              0.0082

 Normal termination of Gaussian 16 at Mon Nov 13 20:24:07 2023.
