 Gaussian 16, Revision B.01,
 Gaussian 16:  ES64L-G16RevB.01 20-Dec-2017

 -------------------------
 #P B3LYP/6-311+g(d) force
 -------------------------

 ------------------------------
 Gaussian input prepared by ASE
 ------------------------------
 Symbolic Z-matrix:
 Charge =  0 Multiplicity = 2

                         Standard orientation:
 ---------------------------------------------------------------------
 Center     Atomic      Atomic             Coordinates (Angstroms)
 Number     Number       Type             X           Y           Z
 ---------------------------------------------------------------------
      1         11           0        3.150414   -2.038518    0.761377
      2         11           0        0.779033   -0.218669    0.461975
      3         11           0        2.521529    1.766155   -0.967013
      4         11           0       -0.290501    2.490955   -0.262026
      5         11           0       -1.806931    0.749072    1.639108
      6         11           0       -3.448925   -0.679739   -0.427550
      7         11           0       -0.904619   -2.069257   -1.205871
 ---------------------------------------------------------------------

 SCF Done:  E(UB3LYP) =  -1136.10511528     A.U. after   20 cycles

 The electronic state is 2-A.
 Alpha  occ. eigenvalues --  -38.44785 -38.44231 -38.44212 -38.44199 -38.43820
 Alpha  occ. eigenvalues --  -38.43234 -38.43108  -2.20680  -2.20137  -2.20101
 Alpha  occ. eigenvalues --   -2.20017  -2.19826  -2.19285  -2.19217  -1.14388
 Alpha  occ. eigenvalues --   -1.14368  -1.14307  -1.13874  -1.13824  -1.13769
 Alpha  occ. eigenvalues --   -1.13760  -1.13729  -1.13725  -1.13707  -1.13649
 Alpha  occ. eigenvalues --   -1.13642  -1.13570  -1.13465  -1.13424  -1.13040
 Alpha  occ. eigenvalues --   -1.12951  -1.12937  -1.12863  -1.12825  -1.12796
 Alpha  occ. eigenvalues --   -0.18895  -0.14039  -0.12509  -0.10624
 Alpha virt. eigenvalues --   -0.06521  -0.05055  -0.04097  -0.03710  -0.02932
 Alpha virt. eigenvalues --   -0.02206  -0.01482  -0.01187  -0.00406  -0.00080
 Alpha virt. eigenvalues --    0.00106   0.00229   0.00583   0.00752   0.00823

  Beta  occ. eigenvalues --  -38.44769 -38.44190 -38.44173 -38.44170 -38.43756
  Beta  occ. eigenvalues --  -38.43225 -38.43089  -2.20655  -2.20064  -2.20032
  Beta  occ. eigenvalues --   -2.19963  -2.19707  -2.19257  -2.19208  -1.14357
  Beta  occ. eigenvalues --   -1.14331  -1.14295  -1.13828  -1.13779  -1.13713
  Beta  occ. eigenvalues --   -1.13705  -1.13688  -1.13678  -1.13647  -1.13611
  Beta  occ. eigenvalues --   -1.13607  -1.13492  -1.13384  -1.13348  -1.13027
  Beta  occ. eigenvalues --   -1.12935  -1.12878  -1.12827  -1.12800  -1.12787
  Beta  occ. eigenvalues --   -0.18366  -0.13608  -0.12029
  Beta virt. eigenvalues --   -0.07149  -0.06345  -0.04800  -0.03816  -0.03177
  Beta virt. eigenvalues --   -0.02416  -0.02009  -0.01049  -0.00897  -0.00157
  Beta virt. eigenvalues --    0.00033   0.00166   0.00322   0.00710   0.00840

 Mulliken charges and spin densities:
               1          2
     1  Na   0.360949  -0.096997
     2  Na  -1.746837   0.754916
     3  Na   0.563330   0.024352
     4  Na   0.051883   0.065758
     5  Na   0.474975   0.113105
     6  Na   0.100458  -0.039278
     7  Na   0.195241   0.178143
 Sum of Mulliken charges =  -0.00000   1.00000

 Dipole moment (field-independent basis, Debye):
    X=             -0.1069    Y=             -0.0443    Z=             -0.3034  Tot=              0.3247
 Quadrupole moment (field-independent basis, Debye-Ang):
   XX=            -51.0242   YY=            -70.1926   ZZ=            -72.0560
   XY=             -2.0389   XZ=             -0.9079   YZ=             -1.3368

 Normal termination of Gaussian 16 at Mon Nov 13 17:05:32 2023.
