 Gaussian 16, Revision B.01,
 Gaussian 16:  ES64L-G16RevB.01 20-Dec-2017

 -------------------------
 #P B3LYP/6-311+g(d) force
 -------------------------

 ------------------------------
 Gaussian input prepared by ASE
 ------------------------------
 Symbolic Z-matrix:
 Charge =  0 Multiplicity = 2

                         Standard orientation:
 ---------------------------------------------------------------------
 Center     Atomic      Atomic             Coordinates (Angstroms)
 Number     Number       Type             X           Y           Z
 ---------------------------------------------------------------------
      1         11           0        0.651530   -2.150718   -0.872164
      2         11           0       -0.822635   -1.778617    1.709983
      3         11           0       -4.377299    0.523451   -0.145359
      4         11           0       -1.479209   -0.051244   -0.652073
      5         11           0        0.055022    2.513104   -0.336680
      6         11           0        2.664860    1.722352    0.913761
      7         11           0        3.307732   -0.778328   -0.617468
 ---------------------------------------------------------------------

 SCF Done:  E(UB3LYP) =  -1136.09870433     A.U. after   26 cycles

 The electronic state is 2-A.
 Alpha  occ. eigenvalues --  -38.44922 -38.44457 -38.44359 -38.44094 -38.43865
 Alpha  occ. eigenvalues --  -38.43861 -38.43781  -2.20828  -2.20294  -2.20238
 Alpha  occ. eigenvalues --   -2.19970  -2.19919  -2.19839  -2.19688  -1.14541
 Alpha  occ. eigenvalues --   -1.14467  -1.14439  -1.14008  -1.13980  -1.13935
 Alpha  occ. eigenvalues --   -1.13919  -1.13906  -1.13875  -1.13761  -1.13677
 Alpha  occ. eigenvalues --   -1.13609  -1.13575  -1.13566  -1.13561  -1.13494
 Alpha  occ. eigenvalues --   -1.13479  -1.13419  -1.13323  -1.13296  -1.13271
 Alpha  occ. eigenvalues --   -0.18475  -0.14122  -0.12711  -0.10397
 Alpha virt. eigenvalues --   -0.07472  -0.04708  -0.04410  -0.03700  -0.03110
 Alpha virt. eigenvalues --   -0.02749  -0.01629  -0.01112  -0.00500  -0.00339
 Alpha virt. eigenvalues --   -0.00201   0.00055   0.00419   0.00704   0.00771

  Beta  occ. eigenvalues --  -38.44871 -38.44372 -38.44354 -38.44079 -38.43861
  Beta  occ. eigenvalues --  -38.43858 -38.43721  -2.20732  -2.20235  -2.20135
  Beta  occ. eigenvalues --   -2.19945  -2.19924  -2.19831  -2.19577  -1.14476
  Beta  occ. eigenvalues --   -1.14408  -1.14371  -1.13951  -1.13933  -1.13917
  Beta  occ. eigenvalues --   -1.13871  -1.13809  -1.13801  -1.13756  -1.13660
  Beta  occ. eigenvalues --   -1.13583  -1.13563  -1.13544  -1.13537  -1.13477
  Beta  occ. eigenvalues --   -1.13465  -1.13400  -1.13250  -1.13224  -1.13209
  Beta  occ. eigenvalues --   -0.18090  -0.13452  -0.12271
  Beta virt. eigenvalues --   -0.07216  -0.07046  -0.04565  -0.04132  -0.03203
  Beta virt. eigenvalues --   -0.02803  -0.02356  -0.01355  -0.00729  -0.00273
  Beta virt. eigenvalues --   -0.00083   0.00063   0.00131   0.00571   0.00744

 Mulliken charges and spin densities:
               1          2
     1  Na   1.941878   0.318322
     2  Na  -0.062444   0.220856
     3  Na   0.008180   0.332865
     4  Na  -1.956145  -0.311830
     5  Na   0.727898   0.238434
     6  Na  -0.075536  -0.021531
     7  Na  -0.583832   0.222885
 Sum of Mulliken charges =  -0.00000   1.00000

 Dipole moment (field-independent basis, Debye):
    X=             -0.2181    Y=             -0.2171    Z=              1.4948  Tot=              1.5261
 Quadrupole moment (field-independent basis, Debye-Ang):
   XX=            -67.4565   YY=            -72.3084   ZZ=            -64.2577
   XY=              3.2089   XZ=             -0.4529   YZ=             -1.2357

 Normal termination of Gaussian 16 at Mon Nov 13 15:06:56 2023.
