 Gaussian 16, Revision B.01,
 Gaussian 16:  ES64L-G16RevB.01 20-Dec-2017

 -------------------------
 #P B3LYP/6-311+g(d) force
 -------------------------

 ------------------------------
 Gaussian input prepared by ASE
 ------------------------------
 Symbolic Z-matrix:
 Charge =  0 Multiplicity = 2

                         Standard orientation:
 ---------------------------------------------------------------------
 Center     Atomic      Atomic             Coordinates (Angstroms)
 Number     Number       Type             X           Y           Z
 ---------------------------------------------------------------------
      1         11           0       -0.216531   -0.134697   -1.676276
      2         11           0       -0.742793    2.497986   -0.325008
      3         11           0        4.097964   -0.588257   -0.162504
      4         11           0        1.564586    0.834147    0.547151
      5         11           0       -1.158143    0.338896    1.727447
      6         11           0       -2.931428   -0.653761   -0.491042
      7         11           0       -0.613655   -2.294313    0.380232
 ---------------------------------------------------------------------

 SCF Done:  E(UB3LYP) =  -1136.10145677     A.U. after   22 cycles

 The electronic state is 2-A.
 Alpha  occ. eigenvalues --  -38.44971 -38.44630 -38.44064 -38.43670 -38.43476
 Alpha  occ. eigenvalues --  -38.42923 -38.42649  -2.20753  -2.20631  -2.20181
 Alpha  occ. eigenvalues --   -2.19804  -2.19474  -2.19015  -2.18665  -1.14467
 Alpha  occ. eigenvalues --   -1.14401  -1.14385  -1.14382  -1.14325  -1.14238
 Alpha  occ. eigenvalues --   -1.13899  -1.13836  -1.13783  -1.13534  -1.13455
 Alpha  occ. eigenvalues --   -1.13433  -1.13155  -1.13106  -1.13062  -1.12752
 Alpha  occ. eigenvalues --   -1.12676  -1.12639  -1.12338  -1.12304  -1.12265
 Alpha  occ. eigenvalues --   -0.20272  -0.13535  -0.12143  -0.11576
 Alpha virt. eigenvalues --   -0.06985  -0.04048  -0.03719  -0.03364  -0.02750
 Alpha virt. eigenvalues --   -0.02640  -0.02212  -0.00790  -0.00395   0.00041
 Alpha virt. eigenvalues --    0.00195   0.00377   0.00494   0.00862   0.01081

  Beta  occ. eigenvalues --  -38.44985 -38.44609 -38.43982 -38.43584 -38.43457
  Beta  occ. eigenvalues --  -38.42904 -38.42637  -2.20781  -2.20598  -2.20034
  Beta  occ. eigenvalues --   -2.19648  -2.19445  -2.18985  -2.18647  -1.14486
  Beta  occ. eigenvalues --   -1.14418  -1.14400  -1.14365  -1.14257  -1.14214
  Beta  occ. eigenvalues --   -1.13802  -1.13730  -1.13672  -1.13429  -1.13349
  Beta  occ. eigenvalues --   -1.13322  -1.13131  -1.13047  -1.13035  -1.12743
  Beta  occ. eigenvalues --   -1.12626  -1.12605  -1.12328  -1.12270  -1.12238
  Beta  occ. eigenvalues --   -0.19420  -0.13389  -0.11854
  Beta virt. eigenvalues --   -0.07335  -0.06848  -0.04072  -0.03617  -0.02711
  Beta virt. eigenvalues --   -0.02284  -0.01941  -0.01415  -0.00757  -0.00154
  Beta virt. eigenvalues --    0.00073   0.00205   0.00383   0.00677   0.00888

 Mulliken charges and spin densities:
               1          2
     1  Na   0.054810   0.767203
     2  Na  -0.145967  -0.096106
     3  Na   0.260795  -0.076850
     4  Na  -0.296391   0.038855
     5  Na   0.026599   0.460853
     6  Na   0.254302  -0.035857
     7  Na  -0.154149  -0.058098
 Sum of Mulliken charges =  -0.00000   1.00000

 Dipole moment (field-independent basis, Debye):
    X=             -0.0306    Y=             -0.2876    Z=             -0.2143  Tot=              0.3600
 Quadrupole moment (field-independent basis, Debye-Ang):
   XX=            -51.3853   YY=            -70.3398   ZZ=            -71.2005
   XY=             -2.8956   XZ=             -0.3686   YZ=             -0.6630

 Normal termination of Gaussian 16 at Mon Nov 13 17:50:16 2023.
