 Gaussian 16, Revision B.01,
 Gaussian 16:  ES64L-G16RevB.01 20-Dec-2017

 -------------------------
 #P B3LYP/6-311+g(d) force
 -------------------------

 ------------------------------
 Gaussian input prepared by ASE
 ------------------------------
 Symbolic Z-matrix:
 Charge =  0 Multiplicity = 2

                         Standard orientation:
 ---------------------------------------------------------------------
 Center     Atomic      Atomic             Coordinates (Angstroms)
 Number     Number       Type             X           Y           Z
 ---------------------------------------------------------------------
      1         11           0        0.580157    0.274815   -1.133755
      2         11           0       -1.626394   -1.732899   -0.759555
      3         11           0       -3.630007    0.450296   -0.273859
      4         11           0       -1.170170    1.850032    0.729422
      5         11           0       -0.018406   -0.789081    1.592690
      6         11           0        2.592678   -1.443854    0.267612
      7         11           0        3.272143    1.390691   -0.422555
 ---------------------------------------------------------------------

 SCF Done:  E(UB3LYP) =  -1136.09559217     A.U. after   25 cycles

 The electronic state is 2-A.
 Alpha  occ. eigenvalues --  -38.45326 -38.44577 -38.44422 -38.44036 -38.43406
 Alpha  occ. eigenvalues --  -38.43344 -38.43159  -2.21217  -2.20588  -2.20555
 Alpha  occ. eigenvalues --   -2.19935  -2.19406  -2.19339  -2.19275  -1.14906
 Alpha  occ. eigenvalues --   -1.14887  -1.14847  -1.14412  -1.14346  -1.14259
 Alpha  occ. eigenvalues --   -1.14239  -1.14183  -1.14114  -1.13599  -1.13586
 Alpha  occ. eigenvalues --   -1.13540  -1.13164  -1.13111  -1.13092  -1.13011
 Alpha  occ. eigenvalues --   -1.12993  -1.12944  -1.12930  -1.12850  -1.12795
 Alpha  occ. eigenvalues --   -0.19933  -0.14969  -0.11363  -0.11037
 Alpha virt. eigenvalues --   -0.07288  -0.05161  -0.03972  -0.03107  -0.03006
 Alpha virt. eigenvalues --   -0.02238  -0.01832  -0.01208  -0.00294  -0.00101
 Alpha virt. eigenvalues --    0.00110   0.00311   0.00642   0.00743   0.00845

  Beta  occ. eigenvalues --  -38.45307 -38.44565 -38.44401 -38.44023 -38.43377
  Beta  occ. eigenvalues --  -38.43298 -38.43079  -2.21186  -2.20556  -2.20534
  Beta  occ. eigenvalues --   -2.19914  -2.19354  -2.19259  -2.19131  -1.14877
  Beta  occ. eigenvalues --   -1.14861  -1.14818  -1.14397  -1.14295  -1.14230
  Beta  occ. eigenvalues --   -1.14194  -1.14171  -1.14099  -1.13584  -1.13571
  Beta  occ. eigenvalues --   -1.13516  -1.13115  -1.13054  -1.13031  -1.12964
  Beta  occ. eigenvalues --   -1.12925  -1.12893  -1.12841  -1.12766  -1.12683
  Beta  occ. eigenvalues --   -0.19258  -0.14563  -0.11113
  Beta virt. eigenvalues --   -0.07242  -0.06985  -0.05024  -0.03237  -0.02945
  Beta virt. eigenvalues --   -0.02849  -0.01665  -0.01265  -0.00899  -0.00063
  Beta virt. eigenvalues --   -0.00005   0.00201   0.00307   0.00753   0.00820

 Mulliken charges and spin densities:
               1          2
     1  Na  -0.855094   0.228730
     2  Na   0.228017   0.327716
     3  Na   0.095475   0.014780
     4  Na  -0.030805   0.116776
     5  Na  -0.024653   0.183743
     6  Na   0.472973   0.113388
     7  Na   0.114088   0.014867
 Sum of Mulliken charges =  -0.00000   1.00000

 Dipole moment (field-independent basis, Debye):
    X=             -0.0707    Y=             -0.2805    Z=              0.4761  Tot=              0.5571
 Quadrupole moment (field-independent basis, Debye-Ang):
   XX=            -48.9529   YY=            -74.1881   ZZ=            -71.7954
   XY=             -1.3368   XZ=              1.5695   YZ=              0.3708

 Normal termination of Gaussian 16 at Mon Nov 13 15:58:26 2023.
