 Gaussian 16, Revision B.01,
 Gaussian 16:  ES64L-G16RevB.01 20-Dec-2017

 -------------------------
 #P B3LYP/6-311+g(d) force
 -------------------------

 ------------------------------
 Gaussian input prepared by ASE
 ------------------------------
 Symbolic Z-matrix:
 Charge =  0 Multiplicity = 2

                         Standard orientation:
 ---------------------------------------------------------------------
 Center     Atomic      Atomic             Coordinates (Angstroms)
 Number     Number       Type             X           Y           Z
 ---------------------------------------------------------------------
      1         11           0        0.177555    0.000225   -1.460974
      2         11           0        1.159931   -1.821436    0.728650
      3         11           0        3.056131   -0.002947   -0.683655
      4         11           0        1.162615    1.822612    0.726745
      5         11           0       -1.008635    0.000049    1.759309
      6         11           0       -2.275881   -1.478370   -0.535593
      7         11           0       -2.271715    1.479866   -0.534482
 ---------------------------------------------------------------------

 SCF Done:  E(UB3LYP) =  -1136.10569610     A.U. after   21 cycles

 The electronic state is 2-A.
 Alpha  occ. eigenvalues --  -38.44545 -38.43810 -38.43685 -38.43682 -38.43623
 Alpha  occ. eigenvalues --  -38.42919 -38.42916  -2.20531  -2.19949  -2.19850
 Alpha  occ. eigenvalues --   -2.19706  -2.19683  -2.18947  -2.18941  -1.14273
 Alpha  occ. eigenvalues --   -1.14184  -1.14166  -1.13756  -1.13680  -1.13608
 Alpha  occ. eigenvalues --   -1.13589  -1.13541  -1.13510  -1.13434  -1.13316
 Alpha  occ. eigenvalues --   -1.13310  -1.13290  -1.13279  -1.13195  -1.12655
 Alpha  occ. eigenvalues --   -1.12639  -1.12612  -1.12607  -1.12534  -1.12519
 Alpha  occ. eigenvalues --   -0.20637  -0.14511  -0.11994  -0.11643
 Alpha virt. eigenvalues --   -0.05962  -0.04570  -0.04265  -0.03297  -0.02620
 Alpha virt. eigenvalues --   -0.02569  -0.01696  -0.00564  -0.00310   0.00291
 Alpha virt. eigenvalues --    0.00483   0.00650   0.00818   0.00983   0.01032

  Beta  occ. eigenvalues --  -38.44530 -38.43724 -38.43668 -38.43665 -38.43563
  Beta  occ. eigenvalues --  -38.42896 -38.42893  -2.20506  -2.19796  -2.19743
  Beta  occ. eigenvalues --   -2.19677  -2.19657  -2.18911  -2.18905  -1.14253
  Beta  occ. eigenvalues --   -1.14153  -1.14151  -1.13699  -1.13570  -1.13524
  Beta  occ. eigenvalues --   -1.13493  -1.13459  -1.13443  -1.13395  -1.13263
  Beta  occ. eigenvalues --   -1.13259  -1.13256  -1.13244  -1.13170  -1.12631
  Beta  occ. eigenvalues --   -1.12618  -1.12550  -1.12546  -1.12511  -1.12495
  Beta  occ. eigenvalues --   -0.19852  -0.14206  -0.11381
  Beta virt. eigenvalues --   -0.07795  -0.05861  -0.04577  -0.03513  -0.03047
  Beta virt. eigenvalues --   -0.01879  -0.01612  -0.01552  -0.00546  -0.00064
  Beta virt. eigenvalues --    0.00325   0.00529   0.00625   0.00957   0.00983

 Mulliken charges and spin densities:
               1          2
     1  Na  -0.398687   0.346364
     2  Na  -0.649246   0.052219
     3  Na   0.967046   0.041232
     4  Na  -0.647972   0.052156
     5  Na   0.519526   0.483166
     6  Na   0.103586   0.012112
     7  Na   0.105746   0.012751
 Sum of Mulliken charges =  -0.00000   1.00000

 Dipole moment (field-independent basis, Debye):
    X=              0.1090    Y=             -0.0003    Z=             -0.0765  Tot=              0.1332
 Quadrupole moment (field-independent basis, Debye-Ang):
   XX=            -52.6317   YY=            -73.7675   ZZ=            -68.3614
   XY=              0.0066   XZ=              0.1994   YZ=              0.0108

 Normal termination of Gaussian 16 at Mon Nov 13 17:46:08 2023.
