 Gaussian 16, Revision B.01,
 Gaussian 16:  ES64L-G16RevB.01 20-Dec-2017

 -------------------------
 #P B3LYP/6-311+g(d) force
 -------------------------

 ------------------------------
 Gaussian input prepared by ASE
 ------------------------------
 Symbolic Z-matrix:
 Charge =  0 Multiplicity = 2

                         Standard orientation:
 ---------------------------------------------------------------------
 Center     Atomic      Atomic             Coordinates (Angstroms)
 Number     Number       Type             X           Y           Z
 ---------------------------------------------------------------------
      1         11           0        0.794003   -0.537868    1.398257
      2         11           0        0.863866    2.191112    0.156728
      3         11           0        3.303994    0.446214    0.086666
      4         11           0        1.684038   -1.725439   -1.207519
      5         11           0       -0.771968    0.004169   -1.093696
      6         11           0       -2.178956   -0.942279    1.381464
      7         11           0       -3.694975    0.564092   -0.721901
 ---------------------------------------------------------------------

 SCF Done:  E(UB3LYP) =  -1136.08921171     A.U. after   35 cycles

 The electronic state is 2-A.
 Alpha  occ. eigenvalues --  -38.45443 -38.45383 -38.44451 -38.44211 -38.43569
 Alpha  occ. eigenvalues --  -38.42850 -38.42639  -2.21418  -2.21269  -2.20443
 Alpha  occ. eigenvalues --   -2.20368  -2.19769  -2.18844  -2.18621  -1.15140
 Alpha  occ. eigenvalues --   -1.15078  -1.15044  -1.14984  -1.14948  -1.14873
 Alpha  occ. eigenvalues --   -1.14263  -1.14124  -1.14113  -1.14024  -1.13983
 Alpha  occ. eigenvalues --   -1.13947  -1.13476  -1.13441  -1.13339  -1.12527
 Alpha  occ. eigenvalues --   -1.12505  -1.12438  -1.12338  -1.12254  -1.12229
 Alpha  occ. eigenvalues --   -0.20089  -0.15067  -0.11524  -0.11045
 Alpha virt. eigenvalues --   -0.07553  -0.04863  -0.04011  -0.03183  -0.03005
 Alpha virt. eigenvalues --   -0.02270  -0.01833  -0.00975  -0.00526  -0.00050
 Alpha virt. eigenvalues --    0.00245   0.00365   0.00406   0.00878   0.00931

  Beta  occ. eigenvalues --  -38.45443 -38.45361 -38.44397 -38.44176 -38.43497
  Beta  occ. eigenvalues --  -38.42828 -38.42623  -2.21420  -2.21229  -2.20349
  Beta  occ. eigenvalues --   -2.20309  -2.19643  -2.18803  -2.18596  -1.15143
  Beta  occ. eigenvalues --   -1.15067  -1.15041  -1.14961  -1.14907  -1.14844
  Beta  occ. eigenvalues --   -1.14193  -1.14062  -1.14019  -1.13970  -1.13940
  Beta  occ. eigenvalues --   -1.13888  -1.13397  -1.13323  -1.13252  -1.12503
  Beta  occ. eigenvalues --   -1.12476  -1.12398  -1.12321  -1.12228  -1.12200
  Beta  occ. eigenvalues --   -0.19383  -0.14790  -0.10840
  Beta virt. eigenvalues --   -0.07460  -0.07350  -0.04360  -0.03717  -0.02906
  Beta virt. eigenvalues --   -0.02844  -0.01569  -0.01218  -0.00727  -0.00288
  Beta virt. eigenvalues --    0.00028   0.00321   0.00372   0.00554   0.00943

 Mulliken charges and spin densities:
               1          2
     1  Na  -0.373266  -0.008805
     2  Na  -0.312617   0.108303
     3  Na   1.346364   0.177710
     4  Na   0.441402   0.337231
     5  Na  -1.045322   0.147219
     6  Na  -0.605731   0.216393
     7  Na   0.549169   0.021949
 Sum of Mulliken charges =  -0.00000   1.00000

 Dipole moment (field-independent basis, Debye):
    X=             -0.6892    Y=              0.0430    Z=              0.1073  Tot=              0.6988
 Quadrupole moment (field-independent basis, Debye-Ang):
   XX=            -43.3496   YY=            -79.0841   ZZ=            -70.3305
   XY=             -1.2077   XZ=             -0.0774   YZ=             -2.5226

 Normal termination of Gaussian 16 at Mon Nov 13 17:45:47 2023.
