 Gaussian 16, Revision B.01,
 Gaussian 16:  ES64L-G16RevB.01 20-Dec-2017

 -------------------------
 #P B3LYP/6-311+g(d) force
 -------------------------

 ------------------------------
 Gaussian input prepared by ASE
 ------------------------------
 Symbolic Z-matrix:
 Charge =  0 Multiplicity = 2

                         Standard orientation:
 ---------------------------------------------------------------------
 Center     Atomic      Atomic             Coordinates (Angstroms)
 Number     Number       Type             X           Y           Z
 ---------------------------------------------------------------------
      1         11           0       -1.814613    0.545998    1.115800
      2         11           0       -1.829465   -1.490788   -1.142992
      3         11           0        3.782726   -0.472409   -0.277398
      4         11           0        0.901301   -0.324541   -0.469156
      5         11           0        0.461032    2.283273    0.710621
      6         11           0       -1.137136    1.172602   -1.424039
      7         11           0       -0.363844   -1.714136    1.487164
 ---------------------------------------------------------------------

 SCF Done:  E(UB3LYP) =  -1136.07009635     A.U. after   24 cycles

 The electronic state is 2-A.
 Alpha  occ. eigenvalues --  -38.44647 -38.44364 -38.44320 -38.44254 -38.43867
 Alpha  occ. eigenvalues --  -38.43390 -38.43230  -2.20597  -2.20520  -2.20454
 Alpha  occ. eigenvalues --   -2.20440  -2.19979  -2.19588  -2.19435  -1.14648
 Alpha  occ. eigenvalues --   -1.14551  -1.14368  -1.14315  -1.14232  -1.14176
 Alpha  occ. eigenvalues --   -1.14146  -1.14088  -1.14077  -1.14009  -1.13939
 Alpha  occ. eigenvalues --   -1.13858  -1.13644  -1.13571  -1.13549  -1.13331
 Alpha  occ. eigenvalues --   -1.13210  -1.13174  -1.13075  -1.13044  -1.12952
 Alpha  occ. eigenvalues --   -0.21139  -0.13246  -0.12499  -0.12388
 Alpha virt. eigenvalues --   -0.06209  -0.04149  -0.03517  -0.03311  -0.03067
 Alpha virt. eigenvalues --   -0.02798  -0.01555  -0.00644  -0.00331   0.00235
 Alpha virt. eigenvalues --    0.00509   0.00638   0.00716   0.00941   0.01065

  Beta  occ. eigenvalues --  -38.44651 -38.44307 -38.44258 -38.44197 -38.43822
  Beta  occ. eigenvalues --  -38.43371 -38.43200  -2.20492  -2.20460  -2.20418
  Beta  occ. eigenvalues --   -2.20339  -2.19902  -2.19541  -2.19404  -1.14591
  Beta  occ. eigenvalues --   -1.14458  -1.14287  -1.14219  -1.14198  -1.14136
  Beta  occ. eigenvalues --   -1.14091  -1.14082  -1.14055  -1.13931  -1.13873
  Beta  occ. eigenvalues --   -1.13768  -1.13590  -1.13523  -1.13459  -1.13301
  Beta  occ. eigenvalues --   -1.13155  -1.13122  -1.13042  -1.13004  -1.12927
  Beta  occ. eigenvalues --   -0.20241  -0.13026  -0.12259
  Beta virt. eigenvalues --   -0.07972  -0.05993  -0.04074  -0.03371  -0.02645
  Beta virt. eigenvalues --   -0.02420  -0.01867  -0.01333  -0.00563  -0.00091
  Beta virt. eigenvalues --    0.00298   0.00535   0.00669   0.00841   0.00937

 Mulliken charges and spin densities:
               1          2
     1  Na   0.268877   0.322339
     2  Na   0.265438  -0.129919
     3  Na   0.409353  -0.064476
     4  Na  -1.021728   0.388892
     5  Na  -0.069712   0.179425
     6  Na   0.348417   0.053671
     7  Na  -0.200646   0.250069
 Sum of Mulliken charges =  -0.00000   1.00000

 Dipole moment (field-independent basis, Debye):
    X=              0.2893    Y=             -0.0692    Z=              0.2547  Tot=              0.3916
 Quadrupole moment (field-independent basis, Debye-Ang):
   XX=            -57.3301   YY=            -69.9921   ZZ=            -66.3034
   XY=              1.5632   XZ=              1.2350   YZ=              1.0196

 Normal termination of Gaussian 16 at Mon Nov 13 20:19:34 2023.
