 Gaussian 16, Revision B.01,
 Gaussian 16:  ES64L-G16RevB.01 20-Dec-2017

 -------------------------
 #P B3LYP/6-311+g(d) force
 -------------------------

 ------------------------------
 Gaussian input prepared by ASE
 ------------------------------
 Symbolic Z-matrix:
 Charge =  0 Multiplicity = 2

                         Standard orientation:
 ---------------------------------------------------------------------
 Center     Atomic      Atomic             Coordinates (Angstroms)
 Number     Number       Type             X           Y           Z
 ---------------------------------------------------------------------
      1         11           0        0.474004   -1.427598   -0.901779
      2         11           0       -1.814452    0.546093    1.662885
      3         11           0       -2.387283   -1.803703   -0.104943
      4         11           0       -1.513963    0.786026   -1.317064
      5         11           0        0.765934    2.647353   -0.717084
      6         11           0        1.175136    0.473610    1.316784
      7         11           0        3.300624   -1.221782    0.061200
 ---------------------------------------------------------------------

 SCF Done:  E(UB3LYP) =  -1136.10845875     A.U. after   18 cycles

 The electronic state is 2-A.
 Alpha  occ. eigenvalues --  -38.44262 -38.44031 -38.43725 -38.43655 -38.43477
 Alpha  occ. eigenvalues --  -38.43385 -38.43339  -2.20277  -2.19921  -2.19774
 Alpha  occ. eigenvalues --   -2.19713  -2.19577  -2.19418  -2.19297  -1.14002
 Alpha  occ. eigenvalues --   -1.13982  -1.13881  -1.13680  -1.13615  -1.13567
 Alpha  occ. eigenvalues --   -1.13535  -1.13498  -1.13399  -1.13392  -1.13342
 Alpha  occ. eigenvalues --   -1.13321  -1.13280  -1.13263  -1.13187  -1.13049
 Alpha  occ. eigenvalues --   -1.13032  -1.12993  -1.12954  -1.12919  -1.12889
 Alpha  occ. eigenvalues --   -0.20047  -0.13828  -0.12292  -0.11756
 Alpha virt. eigenvalues --   -0.05818  -0.04806  -0.04015  -0.03470  -0.02973
 Alpha virt. eigenvalues --   -0.02670  -0.01516  -0.00889  -0.00286   0.00274
 Alpha virt. eigenvalues --    0.00392   0.00630   0.00784   0.00884   0.00993

  Beta  occ. eigenvalues --  -38.44186 -38.44033 -38.43716 -38.43601 -38.43435
  Beta  occ. eigenvalues --  -38.43368 -38.43307  -2.20141  -2.19925  -2.19709
  Beta  occ. eigenvalues --   -2.19673  -2.19503  -2.19365  -2.19268  -1.13923
  Beta  occ. eigenvalues --   -1.13872  -1.13786  -1.13675  -1.13607  -1.13537
  Beta  occ. eigenvalues --   -1.13527  -1.13433  -1.13382  -1.13320  -1.13300
  Beta  occ. eigenvalues --   -1.13277  -1.13241  -1.13208  -1.13129  -1.13015
  Beta  occ. eigenvalues --   -1.12972  -1.12950  -1.12913  -1.12896  -1.12868
  Beta  occ. eigenvalues --   -0.19276  -0.13667  -0.12021
  Beta virt. eigenvalues --   -0.07553  -0.05628  -0.04808  -0.03652  -0.03000
  Beta virt. eigenvalues --   -0.02275  -0.01770  -0.01351  -0.00803   0.00013
  Beta virt. eigenvalues --    0.00306   0.00410   0.00702   0.00851   0.00921

 Mulliken charges and spin densities:
               1          2
     1  Na  -0.302298   0.301892
     2  Na   0.343319   0.348773
     3  Na   0.384341  -0.024191
     4  Na  -0.361486   0.320375
     5  Na  -0.144060   0.003557
     6  Na  -0.433532   0.124889
     7  Na   0.513717  -0.075294
 Sum of Mulliken charges =  -0.00000   1.00000

 Dipole moment (field-independent basis, Debye):
    X=              0.1424    Y=              0.0893    Z=              0.0370  Tot=              0.1721
 Quadrupole moment (field-independent basis, Debye-Ang):
   XX=            -56.0660   YY=            -68.9437   ZZ=            -69.7651
   XY=              1.5738   XZ=             -1.1598   YZ=             -0.6884

 Normal termination of Gaussian 16 at Mon Nov 13 16:42:18 2023.
