 Gaussian 16, Revision B.01,
 Gaussian 16:  ES64L-G16RevB.01 20-Dec-2017

 -------------------------
 #P B3LYP/6-311+g(d) force
 -------------------------

 ------------------------------
 Gaussian input prepared by ASE
 ------------------------------
 Symbolic Z-matrix:
 Charge =  0 Multiplicity = 2

                         Standard orientation:
 ---------------------------------------------------------------------
 Center     Atomic      Atomic             Coordinates (Angstroms)
 Number     Number       Type             X           Y           Z
 ---------------------------------------------------------------------
      1         11           0       -2.035379   -2.004604    0.959291
      2         11           0       -3.128825   -0.066799   -1.035815
      3         11           0       -0.925767    3.035139    0.569983
      4         11           0       -0.272603    0.179579   -0.121513
      5         11           0        1.794813   -1.772128   -1.093014
      6         11           0        2.476952    1.127996   -0.879659
      7         11           0        2.090809   -0.499184    1.600727
 ---------------------------------------------------------------------

 SCF Done:  E(UB3LYP) =  -1136.10416958     A.U. after   21 cycles

 The electronic state is 2-A.
 Alpha  occ. eigenvalues --  -38.44570 -38.44256 -38.44040 -38.43940 -38.43899
 Alpha  occ. eigenvalues --  -38.43241 -38.42436  -2.20460  -2.20249  -2.20043
 Alpha  occ. eigenvalues --   -2.19895  -2.19830  -2.19051  -2.18741  -1.14194
 Alpha  occ. eigenvalues --   -1.14127  -1.14069  -1.14059  -1.13945  -1.13859
 Alpha  occ. eigenvalues --   -1.13771  -1.13689  -1.13628  -1.13589  -1.13547
 Alpha  occ. eigenvalues --   -1.13480  -1.13468  -1.13458  -1.13447  -1.12797
 Alpha  occ. eigenvalues --   -1.12700  -1.12671  -1.12437  -1.12424  -1.12333
 Alpha  occ. eigenvalues --   -0.19189  -0.14241  -0.11679  -0.10490
 Alpha virt. eigenvalues --   -0.05996  -0.05171  -0.04655  -0.03311  -0.02277
 Alpha virt. eigenvalues --   -0.01915  -0.01666  -0.00951  -0.00659   0.00130
 Alpha virt. eigenvalues --    0.00205   0.00418   0.00530   0.00763   0.00817

  Beta  occ. eigenvalues --  -38.44555 -38.44225 -38.43982 -38.43931 -38.43861
  Beta  occ. eigenvalues --  -38.43241 -38.42406  -2.20432  -2.20196  -2.19936
  Beta  occ. eigenvalues --   -2.19829  -2.19816  -2.19053  -2.18697  -1.14177
  Beta  occ. eigenvalues --   -1.14104  -1.14042  -1.14035  -1.13883  -1.13806
  Beta  occ. eigenvalues --   -1.13712  -1.13606  -1.13551  -1.13541  -1.13537
  Beta  occ. eigenvalues --   -1.13440  -1.13430  -1.13426  -1.13392  -1.12796
  Beta  occ. eigenvalues --   -1.12696  -1.12671  -1.12420  -1.12315  -1.12301
  Beta  occ. eigenvalues --   -0.18437  -0.14035  -0.11517
  Beta virt. eigenvalues --   -0.06570  -0.05783  -0.04997  -0.04327  -0.02971
  Beta virt. eigenvalues --   -0.01817  -0.01660  -0.01068  -0.00804  -0.00261
  Beta virt. eigenvalues --    0.00160   0.00292   0.00475   0.00687   0.00836

 Mulliken charges and spin densities:
               1          2
     1  Na   0.402531  -0.054016
     2  Na   0.461337  -0.065148
     3  Na   0.353078  -0.166865
     4  Na  -2.113477   0.736748
     5  Na   0.467578   0.238956
     6  Na   0.287631   0.146114
     7  Na   0.141322   0.164212
 Sum of Mulliken charges =  -0.00000   1.00000

 Dipole moment (field-independent basis, Debye):
    X=             -0.2059    Y=             -0.2884    Z=              0.0422  Tot=              0.3569
 Quadrupole moment (field-independent basis, Debye-Ang):
   XX=            -54.2257   YY=            -66.6194   ZZ=            -70.2666
   XY=              0.6839   XZ=              1.3115   YZ=             -0.3973

 Normal termination of Gaussian 16 at Mon Nov 13 20:27:26 2023.
