 Gaussian 16, Revision B.01,
 Gaussian 16:  ES64L-G16RevB.01 20-Dec-2017

 -------------------------
 #P B3LYP/6-311+g(d) force
 -------------------------

 ------------------------------
 Gaussian input prepared by ASE
 ------------------------------
 Symbolic Z-matrix:
 Charge =  0 Multiplicity = 2

                         Standard orientation:
 ---------------------------------------------------------------------
 Center     Atomic      Atomic             Coordinates (Angstroms)
 Number     Number       Type             X           Y           Z
 ---------------------------------------------------------------------
      1         11           0        1.306197    0.464133   -1.719039
      2         11           0        0.812168   -1.876166   -0.392387
      3         11           0       -3.930558   -0.085803    0.029259
      4         11           0       -1.163441   -0.059243   -0.664395
      5         11           0        2.546118   -0.057860    0.646446
      6         11           0        0.079795   -0.347788    1.757063
      7         11           0        0.349720    1.962727    0.343053
 ---------------------------------------------------------------------

 SCF Done:  E(UB3LYP) =  -1136.03245918     A.U. after   28 cycles

 The electronic state is 2-A.
 Alpha  occ. eigenvalues --  -38.45971 -38.45219 -38.45189 -38.44914 -38.44128
 Alpha  occ. eigenvalues --  -38.43411 -38.43075  -2.21767  -2.21523  -2.21423
 Alpha  occ. eigenvalues --   -2.21216  -2.20516  -2.19677  -2.19300  -1.15583
 Alpha  occ. eigenvalues --   -1.15515  -1.15397  -1.15390  -1.15382  -1.15310
 Alpha  occ. eigenvalues --   -1.15163  -1.15093  -1.15001  -1.14861  -1.14824
 Alpha  occ. eigenvalues --   -1.14687  -1.14253  -1.14189  -1.14055  -1.13333
 Alpha  occ. eigenvalues --   -1.13258  -1.13219  -1.13006  -1.12922  -1.12824
 Alpha  occ. eigenvalues --   -0.21951  -0.13905  -0.12929  -0.11707
 Alpha virt. eigenvalues --   -0.07208  -0.03806  -0.03757  -0.03215  -0.02690
 Alpha virt. eigenvalues --   -0.02489  -0.02177  -0.00539  -0.00233   0.00098
 Alpha virt. eigenvalues --    0.00382   0.00505   0.00612   0.00872   0.01169

  Beta  occ. eigenvalues --  -38.45983 -38.45154 -38.45124 -38.44825 -38.44089
  Beta  occ. eigenvalues --  -38.43382 -38.43048  -2.21789  -2.21399  -2.21321
  Beta  occ. eigenvalues --   -2.21059  -2.20452  -2.19634  -2.19260  -1.15545
  Beta  occ. eigenvalues --   -1.15497  -1.15409  -1.15406  -1.15276  -1.15214
  Beta  occ. eigenvalues --   -1.15049  -1.14982  -1.14943  -1.14760  -1.14703
  Beta  occ. eigenvalues --   -1.14595  -1.14218  -1.14135  -1.13955  -1.13317
  Beta  occ. eigenvalues --   -1.13194  -1.13150  -1.12986  -1.12835  -1.12795
  Beta  occ. eigenvalues --   -0.21014  -0.13765  -0.11401
  Beta virt. eigenvalues --   -0.08301  -0.07068  -0.03423  -0.03169  -0.03055
  Beta virt. eigenvalues --   -0.02220  -0.01818  -0.01594  -0.00256  -0.00192
  Beta virt. eigenvalues --    0.00133   0.00451   0.00602   0.00644   0.00917

 Mulliken charges and spin densities:
               1          2
     1  Na  -0.170822   0.251733
     2  Na  -0.246193   0.006429
     3  Na   0.501625  -0.001920
     4  Na  -0.008789   0.083720
     5  Na   0.248131   0.056570
     6  Na   0.011512   0.582512
     7  Na  -0.335464   0.020955
 Sum of Mulliken charges =  -0.00000   1.00000

 Dipole moment (field-independent basis, Debye):
    X=             -1.0830    Y=              0.1835    Z=              0.2605  Tot=              1.1289
 Quadrupole moment (field-independent basis, Debye-Ang):
   XX=            -47.7014   YY=            -78.4370   ZZ=            -66.4400
   XY=              0.4982   XZ=             -0.9791   YZ=              1.8442

 Normal termination of Gaussian 16 at Mon Nov 13 20:25:51 2023.
