 Gaussian 16, Revision B.01,
 Gaussian 16:  ES64L-G16RevB.01 20-Dec-2017

 -------------------------
 #P B3LYP/6-311+g(d) force
 -------------------------

 ------------------------------
 Gaussian input prepared by ASE
 ------------------------------
 Symbolic Z-matrix:
 Charge =  0 Multiplicity = 2

                         Standard orientation:
 ---------------------------------------------------------------------
 Center     Atomic      Atomic             Coordinates (Angstroms)
 Number     Number       Type             X           Y           Z
 ---------------------------------------------------------------------
      1         11           0       -2.090258    1.495941   -0.000376
      2         11           0        0.878907   -1.898541    0.000376
      3         11           0        3.206842    0.002340   -0.000110
      4         11           0        0.873260    1.900051    0.000300
      5         11           0       -0.389976   -0.000924   -1.958751
      6         11           0       -0.390736   -0.000739    1.958791
      7         11           0       -2.088039   -1.498129   -0.000230
 ---------------------------------------------------------------------

 SCF Done:  E(UB3LYP) =  -1136.10537254     A.U. after   18 cycles

 The electronic state is 2-A.
 Alpha  occ. eigenvalues --  -38.44467 -38.44339 -38.44339 -38.43340 -38.43337
 Alpha  occ. eigenvalues --  -38.42740 -38.42739  -2.20454  -2.20453  -2.20361
 Alpha  occ. eigenvalues --   -2.19431  -2.19410  -2.18823  -2.18821  -1.14197
 Alpha  occ. eigenvalues --   -1.14148  -1.14093  -1.14091  -1.14088  -1.14087
 Alpha  occ. eigenvalues --   -1.14048  -1.14047  -1.13987  -1.13208  -1.13122
 Alpha  occ. eigenvalues --   -1.13109  -1.13077  -1.13054  -1.12939  -1.12522
 Alpha  occ. eigenvalues --   -1.12509  -1.12492  -1.12489  -1.12422  -1.12413
 Alpha  occ. eigenvalues --   -0.20893  -0.13877  -0.12265  -0.12228
 Alpha virt. eigenvalues --   -0.05810  -0.04245  -0.03745  -0.03699  -0.03065
 Alpha virt. eigenvalues --   -0.03034  -0.01495  -0.00464  -0.00173   0.00299
 Alpha virt. eigenvalues --    0.00535   0.00667   0.00965   0.00976   0.01084

  Beta  occ. eigenvalues --  -38.44472 -38.44240 -38.44240 -38.43325 -38.43323
  Beta  occ. eigenvalues --  -38.42727 -38.42725  -2.20372  -2.20275  -2.20274
  Beta  occ. eigenvalues --   -2.19412  -2.19391  -2.18805  -2.18803  -1.14091
  Beta  occ. eigenvalues --   -1.14060  -1.14059  -1.14037  -1.13981  -1.13960
  Beta  occ. eigenvalues --   -1.13957  -1.13954  -1.13953  -1.13202  -1.13115
  Beta  occ. eigenvalues --   -1.13102  -1.13005  -1.12982  -1.12934  -1.12517
  Beta  occ. eigenvalues --   -1.12504  -1.12425  -1.12422  -1.12418  -1.12408
  Beta  occ. eigenvalues --   -0.20037  -0.13595  -0.11907
  Beta virt. eigenvalues --   -0.08068  -0.05746  -0.04266  -0.03582  -0.02863
  Beta virt. eigenvalues --   -0.02110  -0.02086  -0.01441  -0.00431   0.00002
  Beta virt. eigenvalues --    0.00321   0.00545   0.00630   0.00997   0.01080

 Mulliken charges and spin densities:
               1          2
     1  Na   0.404304   0.028032
     2  Na  -0.156063   0.008757
     3  Na  -0.312463  -0.128166
     4  Na  -0.156993   0.008842
     5  Na  -0.091300   0.527253
     6  Na  -0.090965   0.527173
     7  Na   0.403481   0.028108
 Sum of Mulliken charges =  -0.00000   1.00000

 Dipole moment (field-independent basis, Debye):
    X=              0.4139    Y=             -0.0001    Z=             -0.0001  Tot=              0.4139
 Quadrupole moment (field-independent basis, Debye-Ang):
   XX=            -55.4542   YY=            -73.8209   ZZ=            -67.0970
   XY=              0.0051   XZ=              0.0003   YZ=             -0.0004

 Normal termination of Gaussian 16 at Mon Nov 13 19:54:22 2023.
