 Gaussian 16, Revision B.01,
 Gaussian 16:  ES64L-G16RevB.01 20-Dec-2017

 -------------------------
 #P B3LYP/6-311+g(d) force
 -------------------------

 ------------------------------
 Gaussian input prepared by ASE
 ------------------------------
 Symbolic Z-matrix:
 Charge =  0 Multiplicity = 2

                         Standard orientation:
 ---------------------------------------------------------------------
 Center     Atomic      Atomic             Coordinates (Angstroms)
 Number     Number       Type             X           Y           Z
 ---------------------------------------------------------------------
      1         11           0        0.279788   -2.144812   -0.217862
      2         11           0        1.417056   -0.099169    1.656333
      3         11           0        2.580914   -0.421439   -1.083921
      4         11           0        1.208082    2.140081   -0.333959
      5         11           0       -1.783239    1.899987   -0.182351
      6         11           0       -1.546571   -0.545934    1.539689
      7         11           0       -2.156029   -0.828713   -1.377929
 ---------------------------------------------------------------------

 SCF Done:  E(UB3LYP) =  -1136.10782700     A.U. after   20 cycles

 The electronic state is 2-A.
 Alpha  occ. eigenvalues --  -38.44269 -38.44235 -38.44056 -38.43991 -38.43403
 Alpha  occ. eigenvalues --  -38.43288 -38.42988  -2.20253  -2.20223  -2.20154
 Alpha  occ. eigenvalues --   -2.20085  -2.19380  -2.19262  -2.19055  -1.14043
 Alpha  occ. eigenvalues --   -1.14003  -1.13969  -1.13918  -1.13894  -1.13891
 Alpha  occ. eigenvalues --   -1.13853  -1.13787  -1.13740  -1.13718  -1.13698
 Alpha  occ. eigenvalues --   -1.13633  -1.13118  -1.13038  -1.13026  -1.12927
 Alpha  occ. eigenvalues --   -1.12905  -1.12831  -1.12739  -1.12703  -1.12682
 Alpha  occ. eigenvalues --   -0.20264  -0.13990  -0.12464  -0.12005
 Alpha virt. eigenvalues --   -0.05223  -0.04818  -0.04382  -0.04003  -0.03064
 Alpha virt. eigenvalues --   -0.02932  -0.00870  -0.00396  -0.00301   0.00394
 Alpha virt. eigenvalues --    0.00570   0.00611   0.00876   0.00906   0.00945

  Beta  occ. eigenvalues --  -38.44240 -38.44195 -38.43991 -38.43932 -38.43397
  Beta  occ. eigenvalues --  -38.43281 -38.42970  -2.20201  -2.20150  -2.20041
  Beta  occ. eigenvalues --   -2.19984  -2.19372  -2.19252  -2.19028  -1.14002
  Beta  occ. eigenvalues --   -1.13956  -1.13882  -1.13870  -1.13841  -1.13837
  Beta  occ. eigenvalues --   -1.13792  -1.13713  -1.13674  -1.13652  -1.13628
  Beta  occ. eigenvalues --   -1.13530  -1.13116  -1.13036  -1.12990  -1.12923
  Beta  occ. eigenvalues --   -1.12872  -1.12828  -1.12720  -1.12672  -1.12632
  Beta  occ. eigenvalues --   -0.19475  -0.13813  -0.12199
  Beta virt. eigenvalues --   -0.07836  -0.05055  -0.04712  -0.03957  -0.03749
  Beta virt. eigenvalues --   -0.02311  -0.01829  -0.00841  -0.00288  -0.00055
  Beta virt. eigenvalues --    0.00464   0.00590   0.00625   0.00918   0.00952

 Mulliken charges and spin densities:
               1          2
     1  Na   0.080081   0.654874
     2  Na  -0.454077  -0.038860
     3  Na   0.291240   0.031739
     4  Na  -0.031900   0.120980
     5  Na  -0.016136   0.196574
     6  Na   0.148402  -0.026175
     7  Na  -0.017611   0.060869
 Sum of Mulliken charges =  -0.00000   1.00000

 Dipole moment (field-independent basis, Debye):
    X=              0.0581    Y=             -0.0540    Z=             -0.4202  Tot=              0.4277
 Quadrupole moment (field-independent basis, Debye-Ang):
   XX=            -60.9112   YY=            -71.9753   ZZ=            -65.6113
   XY=             -0.1816   XZ=             -0.5345   YZ=              0.7819

 Normal termination of Gaussian 16 at Mon Nov 13 18:05:17 2023.
