 Gaussian 16, Revision B.01,
 Gaussian 16:  ES64L-G16RevB.01 20-Dec-2017

 -------------------------
 #P B3LYP/6-311+g(d) force
 -------------------------

 ------------------------------
 Gaussian input prepared by ASE
 ------------------------------
 Symbolic Z-matrix:
 Charge =  0 Multiplicity = 2

                         Standard orientation:
 ---------------------------------------------------------------------
 Center     Atomic      Atomic             Coordinates (Angstroms)
 Number     Number       Type             X           Y           Z
 ---------------------------------------------------------------------
      1         11           0       -0.929549   -2.222963   -1.638787
      2         11           0        2.518381   -0.138922    1.970328
      3         11           0        3.053979   -0.189973   -0.974343
      4         11           0        0.227439   -0.007643    0.029078
      5         11           0       -2.162395   -1.537161    1.002644
      6         11           0       -2.269678    1.454253    0.829191
      7         11           0       -0.438177    2.642408   -1.218112
 ---------------------------------------------------------------------

 SCF Done:  E(UB3LYP) =  -1136.10546669     A.U. after   25 cycles

 The electronic state is 2-A.
 Alpha  occ. eigenvalues --  -38.44632 -38.44514 -38.43660 -38.43502 -38.43489
 Alpha  occ. eigenvalues --  -38.43183 -38.42627  -2.20516  -2.20412  -2.19566
 Alpha  occ. eigenvalues --   -2.19489  -2.19467  -2.19085  -2.18928  -1.14295
 Alpha  occ. eigenvalues --   -1.14200  -1.14134  -1.14098  -1.14011  -1.13973
 Alpha  occ. eigenvalues --   -1.13358  -1.13323  -1.13244  -1.13216  -1.13177
 Alpha  occ. eigenvalues --   -1.13128  -1.13107  -1.13035  -1.13011  -1.12832
 Alpha  occ. eigenvalues --   -1.12702  -1.12692  -1.12632  -1.12575  -1.12499
 Alpha  occ. eigenvalues --   -0.18916  -0.13867  -0.11969  -0.11278
 Alpha virt. eigenvalues --   -0.05664  -0.04996  -0.04026  -0.03451  -0.02980
 Alpha virt. eigenvalues --   -0.02499  -0.01547  -0.00587  -0.00566   0.00175
 Alpha virt. eigenvalues --    0.00413   0.00561   0.00705   0.00819   0.00880

  Beta  occ. eigenvalues --  -38.44631 -38.44464 -38.43616 -38.43483 -38.43468
  Beta  occ. eigenvalues --  -38.43157 -38.42592  -2.20517  -2.20316  -2.19486
  Beta  occ. eigenvalues --   -2.19456  -2.19432  -2.19038  -2.18879  -1.14285
  Beta  occ. eigenvalues --   -1.14175  -1.14136  -1.14032  -1.13947  -1.13922
  Beta  occ. eigenvalues --   -1.13324  -1.13283  -1.13203  -1.13169  -1.13126
  Beta  occ. eigenvalues --   -1.13100  -1.13073  -1.13012  -1.12965  -1.12793
  Beta  occ. eigenvalues --   -1.12670  -1.12656  -1.12558  -1.12502  -1.12470
  Beta  occ. eigenvalues --   -0.18152  -0.13594  -0.11802
  Beta virt. eigenvalues --   -0.07514  -0.05303  -0.04433  -0.03768  -0.03212
  Beta virt. eigenvalues --   -0.02593  -0.01770  -0.01462  -0.00560  -0.00220
  Beta virt. eigenvalues --    0.00385   0.00471   0.00680   0.00747   0.00922

 Mulliken charges and spin densities:
               1          2
     1  Na   0.783524  -0.026641
     2  Na   0.360013  -0.212157
     3  Na   0.784868  -0.181180
     4  Na  -3.897460   1.191100
     5  Na   0.727055   0.206576
     6  Na   0.638598   0.129446
     7  Na   0.603401  -0.107144
 Sum of Mulliken charges =  -0.00000   1.00000

 Dipole moment (field-independent basis, Debye):
    X=              0.8459    Y=             -0.1583    Z=             -0.1014  Tot=              0.8665
 Quadrupole moment (field-independent basis, Debye-Ang):
   XX=            -58.6176   YY=            -71.9815   ZZ=            -62.3448
   XY=              0.5475   XZ=             -3.1881   YZ=             -0.1246

 Normal termination of Gaussian 16 at Mon Nov 13 20:12:56 2023.
