 Gaussian 16, Revision B.01,
 Gaussian 16:  ES64L-G16RevB.01 20-Dec-2017

 -------------------------
 #P B3LYP/6-311+g(d) force
 -------------------------

 ------------------------------
 Gaussian input prepared by ASE
 ------------------------------
 Symbolic Z-matrix:
 Charge =  0 Multiplicity = 2

                         Standard orientation:
 ---------------------------------------------------------------------
 Center     Atomic      Atomic             Coordinates (Angstroms)
 Number     Number       Type             X           Y           Z
 ---------------------------------------------------------------------
      1         11           0        2.659487    1.921517   -0.561905
      2         11           0        2.809906    0.171409    1.868308
      3         11           0        4.442125   -0.491418   -0.558813
      4         11           0        1.459878   -0.826989   -0.616618
      5         11           0       -1.490180   -1.317658   -0.357855
      6         11           0       -4.406698   -1.116079    0.314583
      7         11           0       -5.474518    1.659219   -0.087700
 ---------------------------------------------------------------------

 SCF Done:  E(UB3LYP) =  -1136.08076014     A.U. after   68 cycles

 The electronic state is 2-A.
 Alpha  occ. eigenvalues --  -38.46846 -38.45612 -38.44058 -38.44013 -38.43872
 Alpha  occ. eigenvalues --  -38.43236 -38.42760  -2.22815  -2.21605  -2.20094
 Alpha  occ. eigenvalues --   -2.19805  -2.19750  -2.19329  -2.18633  -1.16533
 Alpha  occ. eigenvalues --   -1.16467  -1.16447  -1.15318  -1.15238  -1.15234
 Alpha  occ. eigenvalues --   -1.13785  -1.13749  -1.13664  -1.13584  -1.13467
 Alpha  occ. eigenvalues --   -1.13462  -1.13435  -1.13382  -1.13312  -1.13027
 Alpha  occ. eigenvalues --   -1.13006  -1.12949  -1.12330  -1.12267  -1.12263
 Alpha  occ. eigenvalues --   -0.19228  -0.14363  -0.11066  -0.10691
 Alpha virt. eigenvalues --   -0.07870  -0.06504  -0.03937  -0.02915  -0.02644
 Alpha virt. eigenvalues --   -0.02261  -0.01625  -0.01474  -0.01338  -0.01125
 Alpha virt. eigenvalues --   -0.00784   0.00067   0.00160   0.00333   0.00579

  Beta  occ. eigenvalues --  -38.46814 -38.45569 -38.44029 -38.43954 -38.43869
  Beta  occ. eigenvalues --  -38.43200 -38.42772  -2.22766  -2.21535  -2.19901
  Beta  occ. eigenvalues --   -2.19836  -2.19743  -2.19272  -2.18657  -1.16511
  Beta  occ. eigenvalues --   -1.16414  -1.16357  -1.15280  -1.15195  -1.15119
  Beta  occ. eigenvalues --   -1.13664  -1.13616  -1.13598  -1.13520  -1.13484
  Beta  occ. eigenvalues --   -1.13482  -1.13440  -1.13376  -1.13319  -1.12999
  Beta  occ. eigenvalues --   -1.12978  -1.12842  -1.12335  -1.12285  -1.12278
  Beta  occ. eigenvalues --   -0.18299  -0.14430  -0.10937
  Beta virt. eigenvalues --   -0.07588  -0.06457  -0.06272  -0.03818  -0.02802
  Beta virt. eigenvalues --   -0.02608  -0.01926  -0.01241  -0.00928  -0.00785
  Beta virt. eigenvalues --   -0.00642  -0.00558   0.00096   0.00362   0.00379

 Mulliken charges and spin densities:
               1          2
     1  Na   0.151833   0.233832
     2  Na  -0.302323   0.541584
     3  Na   1.982840   0.248618
     4  Na  -2.356545   0.052579
     5  Na  -0.354626  -0.019260
     6  Na   0.988957   0.021951
     7  Na  -0.110136  -0.079303
 Sum of Mulliken charges =  -0.00000   1.00000

 Dipole moment (field-independent basis, Debye):
    X=              1.9035    Y=              1.4583    Z=             -0.0805  Tot=              2.3993
 Quadrupole moment (field-independent basis, Debye-Ang):
   XX=            -65.5282   YY=            -57.0232   ZZ=            -78.5244
   XY=             -5.0394   XZ=             -0.9218   YZ=             -2.9939

 Normal termination of Gaussian 16 at Mon Nov 13 15:33:45 2023.
