 Gaussian 16, Revision B.01,
 Gaussian 16:  ES64L-G16RevB.01 20-Dec-2017

 -------------------------
 #P B3LYP/6-311+g(d) force
 -------------------------

 ------------------------------
 Gaussian input prepared by ASE
 ------------------------------
 Symbolic Z-matrix:
 Charge =  0 Multiplicity = 2

                         Standard orientation:
 ---------------------------------------------------------------------
 Center     Atomic      Atomic             Coordinates (Angstroms)
 Number     Number       Type             X           Y           Z
 ---------------------------------------------------------------------
      1         11           0        2.047722    0.033854   -1.031582
      2         11           0        0.898542    2.802081   -1.166936
      3         11           0        1.267032    1.459056    1.489332
      4         11           0        1.831813   -1.487944    1.542025
      5         11           0        0.383982   -2.459591   -0.899172
      6         11           0       -2.341735   -1.252208   -0.535286
      7         11           0       -4.087356    0.904753    0.601619
 ---------------------------------------------------------------------

 SCF Done:  E(UB3LYP) =  -1136.10383476     A.U. after   21 cycles

 The electronic state is 2-A.
 Alpha  occ. eigenvalues --  -38.44276 -38.44265 -38.44170 -38.44160 -38.43943
 Alpha  occ. eigenvalues --  -38.43740 -38.43592  -2.20354  -2.20172  -2.20155
 Alpha  occ. eigenvalues --   -2.20078  -2.19847  -2.19723  -2.19462  -1.14180
 Alpha  occ. eigenvalues --   -1.14090  -1.14025  -1.13958  -1.13816  -1.13802
 Alpha  occ. eigenvalues --   -1.13789  -1.13776  -1.13757  -1.13727  -1.13720
 Alpha  occ. eigenvalues --   -1.13709  -1.13501  -1.13467  -1.13448  -1.13439
 Alpha  occ. eigenvalues --   -1.13365  -1.13330  -1.13108  -1.13098  -1.13091
 Alpha  occ. eigenvalues --   -0.18933  -0.13619  -0.12689  -0.11451
 Alpha virt. eigenvalues --   -0.06417  -0.04772  -0.04418  -0.03826  -0.03072
 Alpha virt. eigenvalues --   -0.02517  -0.01474  -0.00886  -0.00561  -0.00306
 Alpha virt. eigenvalues --   -0.00076   0.00201   0.00440   0.00677   0.00907

  Beta  occ. eigenvalues --  -38.44259 -38.44230 -38.44125 -38.44102 -38.43914
  Beta  occ. eigenvalues --  -38.43710 -38.43589  -2.20296  -2.20086  -2.20058
  Beta  occ. eigenvalues --   -2.20046  -2.19793  -2.19669  -2.19460  -1.14121
  Beta  occ. eigenvalues --   -1.14049  -1.13969  -1.13859  -1.13769  -1.13757
  Beta  occ. eigenvalues --   -1.13743  -1.13716  -1.13703  -1.13698  -1.13687
  Beta  occ. eigenvalues --   -1.13643  -1.13453  -1.13424  -1.13413  -1.13407
  Beta  occ. eigenvalues --   -1.13326  -1.13282  -1.13100  -1.13099  -1.13074
  Beta  occ. eigenvalues --   -0.18230  -0.13313  -0.12483
  Beta virt. eigenvalues --   -0.07552  -0.06079  -0.04616  -0.04230  -0.03252
  Beta virt. eigenvalues --   -0.02619  -0.01744  -0.01329  -0.00834  -0.00416
  Beta virt. eigenvalues --   -0.00011   0.00053   0.00363   0.00525   0.00701

 Mulliken charges and spin densities:
               1          2
     1  Na  -0.162736   0.588227
     2  Na   0.490234  -0.005549
     3  Na  -0.817480   0.129301
     4  Na   0.658737   0.147892
     5  Na   0.238601  -0.004271
     6  Na  -0.804075   0.012334
     7  Na   0.396719   0.132066
 Sum of Mulliken charges =  -0.00000   1.00000

 Dipole moment (field-independent basis, Debye):
    X=              0.2709    Y=              0.5676    Z=              0.2101  Tot=              0.6631
 Quadrupole moment (field-independent basis, Debye-Ang):
   XX=            -67.0713   YY=            -63.8279   ZZ=            -68.6518
   XY=             -4.8417   XZ=             -1.7529   YZ=             -0.0727

 Normal termination of Gaussian 16 at Mon Nov 13 14:55:14 2023.
