 Gaussian 16, Revision B.01,
 Gaussian 16:  ES64L-G16RevB.01 20-Dec-2017

 -------------------------
 #P B3LYP/6-311+g(d) force
 -------------------------

 ------------------------------
 Gaussian input prepared by ASE
 ------------------------------
 Symbolic Z-matrix:
 Charge =  0 Multiplicity = 2

                         Standard orientation:
 ---------------------------------------------------------------------
 Center     Atomic      Atomic             Coordinates (Angstroms)
 Number     Number       Type             X           Y           Z
 ---------------------------------------------------------------------
      1         11           0       -0.593340   -0.769385   -0.276205
      2         11           0        2.175324   -1.920242   -0.389945
      3         11           0        3.729090    0.631716   -0.663862
      4         11           0        1.586924    0.392031    1.424286
      5         11           0       -0.625375    2.149566    0.409985
      6         11           0       -2.896224    0.945403   -1.138016
      7         11           0       -3.376398   -1.429090    0.633756
 ---------------------------------------------------------------------

 SCF Done:  E(UB3LYP) =  -1136.09212962     A.U. after   26 cycles

 The electronic state is 2-A.
 Alpha  occ. eigenvalues --  -38.44748 -38.44435 -38.44423 -38.44093 -38.44012
 Alpha  occ. eigenvalues --  -38.43385 -38.42531  -2.20619  -2.20426  -2.20351
 Alpha  occ. eigenvalues --   -2.20191  -2.19996  -2.19582  -2.18513  -1.14382
 Alpha  occ. eigenvalues --   -1.14303  -1.14251  -1.14141  -1.14123  -1.14062
 Alpha  occ. eigenvalues --   -1.14024  -1.13999  -1.13960  -1.13945  -1.13859
 Alpha  occ. eigenvalues --   -1.13785  -1.13700  -1.13612  -1.13588  -1.13243
 Alpha  occ. eigenvalues --   -1.13226  -1.13204  -1.12210  -1.12187  -1.12117
 Alpha  occ. eigenvalues --   -0.19382  -0.15502  -0.11467  -0.10698
 Alpha virt. eigenvalues --   -0.07081  -0.05227  -0.04376  -0.03401  -0.03016
 Alpha virt. eigenvalues --   -0.02010  -0.01602  -0.01161  -0.00361  -0.00212
 Alpha virt. eigenvalues --   -0.00038   0.00176   0.00467   0.00653   0.00785

  Beta  occ. eigenvalues --  -38.44761 -38.44402 -38.44334 -38.44047 -38.43987
  Beta  occ. eigenvalues --  -38.43335 -38.42528  -2.20647  -2.20364  -2.20186
  Beta  occ. eigenvalues --   -2.20117  -2.19959  -2.19500  -2.18511  -1.14394
  Beta  occ. eigenvalues --   -1.14299  -1.14272  -1.14103  -1.14038  -1.14018
  Beta  occ. eigenvalues --   -1.13971  -1.13908  -1.13873  -1.13837  -1.13801
  Beta  occ. eigenvalues --   -1.13693  -1.13663  -1.13573  -1.13526  -1.13191
  Beta  occ. eigenvalues --   -1.13158  -1.13124  -1.12206  -1.12162  -1.12119
  Beta  occ. eigenvalues --   -0.18708  -0.14977  -0.11217
  Beta virt. eigenvalues --   -0.06966  -0.06839  -0.04934  -0.03990  -0.03159
  Beta virt. eigenvalues --   -0.02701  -0.01713  -0.01032  -0.00787  -0.00150
  Beta virt. eigenvalues --   -0.00035   0.00152   0.00290   0.00620   0.00743

 Mulliken charges and spin densities:
               1          2
     1  Na  -1.742597   0.038380
     2  Na  -0.372636   0.304929
     3  Na  -0.053489   0.435394
     4  Na   0.351775   0.217550
     5  Na   0.097083  -0.085966
     6  Na   0.941966   0.202502
     7  Na   0.777898  -0.112787
 Sum of Mulliken charges =  -0.00000   1.00000

 Dipole moment (field-independent basis, Debye):
    X=             -0.5600    Y=             -0.0578    Z=              0.3793  Tot=              0.6789
 Quadrupole moment (field-independent basis, Debye-Ang):
   XX=            -62.7099   YY=            -73.5710   ZZ=            -64.4927
   XY=             -0.1312   XZ=             -0.7876   YZ=             -2.6666

 Normal termination of Gaussian 16 at Mon Nov 13 15:45:49 2023.
