 Gaussian 16, Revision B.01,
 Gaussian 16:  ES64L-G16RevB.01 20-Dec-2017

 -------------------------
 #P B3LYP/6-311+g(d) force
 -------------------------

 ------------------------------
 Gaussian input prepared by ASE
 ------------------------------
 Symbolic Z-matrix:
 Charge =  0 Multiplicity = 2

                         Standard orientation:
 ---------------------------------------------------------------------
 Center     Atomic      Atomic             Coordinates (Angstroms)
 Number     Number       Type             X           Y           Z
 ---------------------------------------------------------------------
      1         11           0        0.887188   -0.208932    2.305403
      2         11           0        1.563732   -1.905504   -1.298070
      3         11           0        3.136133    0.064664    0.335322
      4         11           0        1.371033    2.089129   -1.001238
      5         11           0       -0.600652   -0.069257   -0.303180
      6         11           0       -3.229462   -1.477261   -0.038487
      7         11           0       -3.127973    1.507161    0.000249
 ---------------------------------------------------------------------

 SCF Done:  E(UB3LYP) =  -1136.09647892     A.U. after   30 cycles

 The electronic state is 2-A.
 Alpha  occ. eigenvalues --  -38.45090 -38.44879 -38.44824 -38.44711 -38.43414
 Alpha  occ. eigenvalues --  -38.43383 -38.42888  -2.21086  -2.20758  -2.20704
 Alpha  occ. eigenvalues --   -2.20636  -2.19589  -2.19331  -2.18801  -1.14816
 Alpha  occ. eigenvalues --   -1.14763  -1.14728  -1.14569  -1.14436  -1.14394
 Alpha  occ. eigenvalues --   -1.14385  -1.14337  -1.14335  -1.14255  -1.14255
 Alpha  occ. eigenvalues --   -1.14185  -1.13342  -1.13285  -1.13234  -1.12988
 Alpha  occ. eigenvalues --   -1.12974  -1.12914  -1.12489  -1.12461  -1.12400
 Alpha  occ. eigenvalues --   -0.19245  -0.14849  -0.11444  -0.10766
 Alpha virt. eigenvalues --   -0.06977  -0.05548  -0.03943  -0.03411  -0.02629
 Alpha virt. eigenvalues --   -0.02242  -0.02114  -0.01148  -0.00501  -0.00229
 Alpha virt. eigenvalues --    0.00189   0.00219   0.00336   0.00703   0.00795

  Beta  occ. eigenvalues --  -38.45071 -38.44887 -38.44827 -38.44596 -38.43367
  Beta  occ. eigenvalues --  -38.43361 -38.42864  -2.21061  -2.20775  -2.20710
  Beta  occ. eigenvalues --   -2.20423  -2.19556  -2.19245  -2.18759  -1.14765
  Beta  occ. eigenvalues --   -1.14717  -1.14712  -1.14579  -1.14447  -1.14400
  Beta  occ. eigenvalues --   -1.14391  -1.14335  -1.14266  -1.14192  -1.14115
  Beta  occ. eigenvalues --   -1.14038  -1.13291  -1.13233  -1.13217  -1.12933
  Beta  occ. eigenvalues --   -1.12920  -1.12842  -1.12462  -1.12435  -1.12354
  Beta  occ. eigenvalues --   -0.18487  -0.14667  -0.10572
  Beta virt. eigenvalues --   -0.07267  -0.06743  -0.05566  -0.03328  -0.02958
  Beta virt. eigenvalues --   -0.02576  -0.01540  -0.01458  -0.01104  -0.00347
  Beta virt. eigenvalues --    0.00014   0.00240   0.00254   0.00637   0.00740

 Mulliken charges and spin densities:
               1          2
     1  Na   0.280659   0.341648
     2  Na   0.511937   0.324303
     3  Na   0.431589   0.104236
     4  Na   0.916739   0.195301
     5  Na  -3.055461   0.089189
     6  Na   0.371136   0.010719
     7  Na   0.543401  -0.065395
 Sum of Mulliken charges =  -0.00000   1.00000

 Dipole moment (field-independent basis, Debye):
    X=             -0.9972    Y=             -0.1192    Z=              0.4403  Tot=              1.0966
 Quadrupole moment (field-independent basis, Debye-Ang):
   XX=            -46.5920   YY=            -75.2569   ZZ=            -70.8797
   XY=              0.0564   XZ=             -0.8091   YZ=              0.7370

 Normal termination of Gaussian 16 at Mon Nov 13 17:39:04 2023.
