 Gaussian 16, Revision B.01,
 Gaussian 16:  ES64L-G16RevB.01 20-Dec-2017

 -------------------------
 #P B3LYP/6-311+g(d) force
 -------------------------

 ------------------------------
 Gaussian input prepared by ASE
 ------------------------------
 Symbolic Z-matrix:
 Charge =  0 Multiplicity = 2

                         Standard orientation:
 ---------------------------------------------------------------------
 Center     Atomic      Atomic             Coordinates (Angstroms)
 Number     Number       Type             X           Y           Z
 ---------------------------------------------------------------------
      1         11           0       -1.214620    1.651828    0.473015
      2         11           0       -0.490712   -0.772911    2.087552
      3         11           0       -3.239979    0.004135   -1.015025
      4         11           0       -1.251074   -2.174819   -0.454699
      5         11           0        1.456572    2.785810   -0.263724
      6         11           0        0.985588   -0.170063   -0.444522
      7         11           0        3.754225   -1.323980   -0.382596
 ---------------------------------------------------------------------

 SCF Done:  E(UB3LYP) =  -1136.10056017     A.U. after   26 cycles

 The electronic state is 2-A.
 Alpha  occ. eigenvalues --  -38.44729 -38.44581 -38.44390 -38.44094 -38.43837
 Alpha  occ. eigenvalues --  -38.43030 -38.42882  -2.20520  -2.20493  -2.20404
 Alpha  occ. eigenvalues --   -2.20073  -2.19720  -2.19113  -2.19057  -1.14217
 Alpha  occ. eigenvalues --   -1.14187  -1.14176  -1.14165  -1.14146  -1.14144
 Alpha  occ. eigenvalues --   -1.14101  -1.14055  -1.13992  -1.13783  -1.13703
 Alpha  occ. eigenvalues --   -1.13655  -1.13475  -1.13373  -1.13346  -1.12909
 Alpha  occ. eigenvalues --   -1.12774  -1.12729  -1.12716  -1.12698  -1.12620
 Alpha  occ. eigenvalues --   -0.19521  -0.13592  -0.12183  -0.11198
 Alpha virt. eigenvalues --   -0.06592  -0.05203  -0.03720  -0.03362  -0.02841
 Alpha virt. eigenvalues --   -0.02241  -0.01969  -0.01024  -0.00480  -0.00099
 Alpha virt. eigenvalues --    0.00130   0.00213   0.00543   0.00799   0.00875

  Beta  occ. eigenvalues --  -38.44715 -38.44524 -38.44277 -38.44079 -38.43842
  Beta  occ. eigenvalues --  -38.43010 -38.42868  -2.20493  -2.20388  -2.20200
  Beta  occ. eigenvalues --   -2.20051  -2.19729  -2.19084  -2.19038  -1.14199
  Beta  occ. eigenvalues --   -1.14146  -1.14125  -1.14115  -1.14107  -1.14026
  Beta  occ. eigenvalues --   -1.14019  -1.13911  -1.13858  -1.13770  -1.13645
  Beta  occ. eigenvalues --   -1.13624  -1.13481  -1.13375  -1.13349  -1.12887
  Beta  occ. eigenvalues --   -1.12717  -1.12701  -1.12692  -1.12658  -1.12612
  Beta  occ. eigenvalues --   -0.18799  -0.13173  -0.11988
  Beta virt. eigenvalues --   -0.07437  -0.06237  -0.04981  -0.03581  -0.02863
  Beta virt. eigenvalues --   -0.02224  -0.01799  -0.01344  -0.00964  -0.00252
  Beta virt. eigenvalues --    0.00039   0.00190   0.00271   0.00626   0.00868

 Mulliken charges and spin densities:
               1          2
     1  Na   1.795251   0.310891
     2  Na  -0.402101   0.171168
     3  Na   0.473727   0.084249
     4  Na   0.223701   0.305916
     5  Na   0.226796  -0.112413
     6  Na  -2.134591   0.117819
     7  Na  -0.182783   0.122371
 Sum of Mulliken charges =  -0.00000   1.00000

 Dipole moment (field-independent basis, Debye):
    X=              0.2086    Y=             -0.2302    Z=              0.4142  Tot=              0.5177
 Quadrupole moment (field-independent basis, Debye-Ang):
   XX=            -55.0849   YY=            -67.0028   ZZ=            -70.5558
   XY=              0.9500   XZ=              0.6057   YZ=             -0.3325

 Normal termination of Gaussian 16 at Mon Nov 13 18:51:29 2023.
