 Gaussian 16, Revision B.01,
 Gaussian 16:  ES64L-G16RevB.01 20-Dec-2017

 -------------------------
 #P B3LYP/6-311+g(d) force
 -------------------------

 ------------------------------
 Gaussian input prepared by ASE
 ------------------------------
 Symbolic Z-matrix:
 Charge =  0 Multiplicity = 2

                         Standard orientation:
 ---------------------------------------------------------------------
 Center     Atomic      Atomic             Coordinates (Angstroms)
 Number     Number       Type             X           Y           Z
 ---------------------------------------------------------------------
      1         11           0        0.049595   -1.858031   -0.086862
      2         11           0       -2.089653   -0.428960   -1.636908
      3         11           0       -2.325638   -0.680955    1.328633
      4         11           0       -1.541939    1.947873    0.111242
      5         11           0        1.445316    1.964400   -0.224123
      6         11           0        1.897350   -0.297487    1.698474
      7         11           0        2.564970   -0.646840   -1.190457
 ---------------------------------------------------------------------

 SCF Done:  E(UB3LYP) =  -1136.10653338     A.U. after   21 cycles

 The electronic state is 2-A.
 Alpha  occ. eigenvalues --  -38.44557 -38.44494 -38.44482 -38.44476 -38.43112
 Alpha  occ. eigenvalues --  -38.43103 -38.42705  -2.20544  -2.20492  -2.20475
 Alpha  occ. eigenvalues --   -2.20466  -2.19093  -2.19079  -2.18781  -1.14348
 Alpha  occ. eigenvalues --   -1.14315  -1.14200  -1.14195  -1.14157  -1.14144
 Alpha  occ. eigenvalues --   -1.14138  -1.14125  -1.14113  -1.14107  -1.14021
 Alpha  occ. eigenvalues --   -1.14000  -1.12878  -1.12769  -1.12758  -1.12736
 Alpha  occ. eigenvalues --   -1.12720  -1.12618  -1.12466  -1.12437  -1.12432
 Alpha  occ. eigenvalues --   -0.19905  -0.14605  -0.11813  -0.11466
 Alpha virt. eigenvalues --   -0.05773  -0.05152  -0.04860  -0.03518  -0.02648
 Alpha virt. eigenvalues --   -0.02585  -0.01327  -0.00611  -0.00228   0.00384
 Alpha virt. eigenvalues --    0.00496   0.00576   0.00618   0.00683   0.00830

  Beta  occ. eigenvalues --  -38.44530 -38.44451 -38.44450 -38.44430 -38.43104
  Beta  occ. eigenvalues --  -38.43096 -38.42679  -2.20495  -2.20424  -2.20400
  Beta  occ. eigenvalues --   -2.20389  -2.19083  -2.19069  -2.18744  -1.14313
  Beta  occ. eigenvalues --   -1.14276  -1.14163  -1.14146  -1.14107  -1.14086
  Beta  occ. eigenvalues --   -1.14079  -1.14075  -1.14057  -1.14052  -1.13962
  Beta  occ. eigenvalues --   -1.13944  -1.12876  -1.12768  -1.12739  -1.12711
  Beta  occ. eigenvalues --   -1.12680  -1.12616  -1.12423  -1.12419  -1.12360
  Beta  occ. eigenvalues --   -0.19137  -0.14449  -0.11572
  Beta virt. eigenvalues --   -0.07535  -0.05546  -0.04804  -0.04341  -0.03476
  Beta virt. eigenvalues --   -0.01915  -0.01726  -0.01291  -0.00205  -0.00179
  Beta virt. eigenvalues --    0.00446   0.00558   0.00642   0.00802   0.00845

 Mulliken charges and spin densities:
               1          2
     1  Na   0.205904   0.526818
     2  Na  -0.340292   0.057029
     3  Na   0.307586   0.120471
     4  Na  -0.023544   0.053724
     5  Na  -0.038305   0.108767
     6  Na  -0.521774   0.124531
     7  Na   0.410425   0.008660
 Sum of Mulliken charges =  -0.00000   1.00000

 Dipole moment (field-independent basis, Debye):
    X=              0.0499    Y=             -0.2453    Z=             -0.0061  Tot=              0.2504
 Quadrupole moment (field-independent basis, Debye-Ang):
   XX=            -55.8116   YY=            -77.2703   ZZ=            -64.2142
   XY=             -0.0281   XZ=             -1.0610   YZ=              0.1092

 Normal termination of Gaussian 16 at Mon Nov 13 17:37:17 2023.
