 Gaussian 16, Revision B.01,
 Gaussian 16:  ES64L-G16RevB.01 20-Dec-2017

 -------------------------
 #P B3LYP/6-311+g(d) force
 -------------------------

 ------------------------------
 Gaussian input prepared by ASE
 ------------------------------
 Symbolic Z-matrix:
 Charge =  0 Multiplicity = 2

                         Standard orientation:
 ---------------------------------------------------------------------
 Center     Atomic      Atomic             Coordinates (Angstroms)
 Number     Number       Type             X           Y           Z
 ---------------------------------------------------------------------
      1         11           0       -1.991041    0.681115    2.639799
      2         11           0       -3.916295   -1.618110   -0.885675
      3         11           0       -1.489840    2.132349   -1.808673
      4         11           0       -1.319291   -0.333839   -0.104353
      5         11           0        1.496511   -1.207865    0.459066
      6         11           0        2.934086    1.421288    0.329534
      7         11           0        4.285869   -1.074937   -0.629698
 ---------------------------------------------------------------------

 SCF Done:  E(UB3LYP) =  -1136.08251996     A.U. after   41 cycles

 The electronic state is 2-A.
 Alpha  occ. eigenvalues --  -38.46356 -38.45400 -38.44916 -38.44474 -38.44125
 Alpha  occ. eigenvalues --  -38.43486 -38.42763  -2.22230  -2.21360  -2.20821
 Alpha  occ. eigenvalues --   -2.20299  -2.19918  -2.19304  -2.18852  -1.15959
 Alpha  occ. eigenvalues --   -1.15872  -1.15859  -1.15097  -1.15031  -1.14963
 Alpha  occ. eigenvalues --   -1.14481  -1.14467  -1.14440  -1.14004  -1.13933
 Alpha  occ. eigenvalues --   -1.13875  -1.13637  -1.13568  -1.13528  -1.13031
 Alpha  occ. eigenvalues --   -1.12947  -1.12913  -1.12598  -1.12542  -1.12395
 Alpha  occ. eigenvalues --   -0.17957  -0.14993  -0.11076  -0.10134
 Alpha virt. eigenvalues --   -0.07279  -0.06504  -0.04310  -0.03399  -0.02972
 Alpha virt. eigenvalues --   -0.02326  -0.02030  -0.01513  -0.00865  -0.00557
 Alpha virt. eigenvalues --   -0.00210   0.00120   0.00271   0.00342   0.00540

  Beta  occ. eigenvalues --  -38.46344 -38.45389 -38.44907 -38.44382 -38.44116
  Beta  occ. eigenvalues --  -38.43449 -38.42747  -2.22209  -2.21341  -2.20803
  Beta  occ. eigenvalues --   -2.20128  -2.19903  -2.19236  -2.18831  -1.15944
  Beta  occ. eigenvalues --   -1.15858  -1.15835  -1.15084  -1.15006  -1.14948
  Beta  occ. eigenvalues --   -1.14467  -1.14455  -1.14427  -1.13889  -1.13817
  Beta  occ. eigenvalues --   -1.13753  -1.13628  -1.13549  -1.13519  -1.12982
  Beta  occ. eigenvalues --   -1.12901  -1.12866  -1.12592  -1.12454  -1.12392
  Beta  occ. eigenvalues --   -0.17501  -0.14600  -0.09956
  Beta virt. eigenvalues --   -0.07460  -0.07067  -0.05886  -0.04101  -0.03162
  Beta virt. eigenvalues --   -0.02556  -0.01887  -0.01672  -0.01318  -0.00520
  Beta virt. eigenvalues --   -0.00314  -0.00145   0.00233   0.00353   0.00443

 Mulliken charges and spin densities:
               1          2
     1  Na   0.250270   0.162800
     2  Na  -0.186045   0.073881
     3  Na   0.325329   0.519969
     4  Na  -0.979251   0.206012
     5  Na   0.101181   0.006145
     6  Na   0.203120   0.074865
     7  Na   0.285397  -0.043672
 Sum of Mulliken charges =  -0.00000   1.00000

 Dipole moment (field-independent basis, Debye):
    X=              2.8306    Y=              0.7371    Z=              0.6555  Tot=              2.9975
 Quadrupole moment (field-independent basis, Debye-Ang):
   XX=            -56.1088   YY=            -63.9649   ZZ=            -77.9310
   XY=             -0.7970   XZ=             -5.8532   YZ=              1.9269

 Normal termination of Gaussian 16 at Mon Nov 13 17:12:03 2023.
