 Gaussian 16, Revision B.01,
 Gaussian 16:  ES64L-G16RevB.01 20-Dec-2017

 -------------------------
 #P B3LYP/6-311+g(d) force
 -------------------------

 ------------------------------
 Gaussian input prepared by ASE
 ------------------------------
 Symbolic Z-matrix:
 Charge =  0 Multiplicity = 2

                         Standard orientation:
 ---------------------------------------------------------------------
 Center     Atomic      Atomic             Coordinates (Angstroms)
 Number     Number       Type             X           Y           Z
 ---------------------------------------------------------------------
      1         11           0        1.557251   -1.954523   -0.144062
      2         11           0        0.001319   -0.004300   -1.542188
      3         11           0        0.002393   -0.380888    1.674769
      4         11           0       -1.551841   -1.958133   -0.143651
      5         11           0       -2.637951    0.910278    0.101263
      6         11           0       -0.004999    2.468941   -0.047252
      7         11           0        2.633828    0.918625    0.101121
 ---------------------------------------------------------------------

 SCF Done:  E(UB3LYP) =  -1136.10941986     A.U. after   19 cycles

 The electronic state is 2-A.
 Alpha  occ. eigenvalues --  -38.43597 -38.43594 -38.43423 -38.43420 -38.43359
 Alpha  occ. eigenvalues --  -38.43316 -38.43215  -2.19593  -2.19577  -2.19572
 Alpha  occ. eigenvalues --   -2.19545  -2.19502  -2.19493  -2.19237  -1.13618
 Alpha  occ. eigenvalues --   -1.13442  -1.13427  -1.13366  -1.13317  -1.13296
 Alpha  occ. eigenvalues --   -1.13291  -1.13231  -1.13216  -1.13201  -1.13195
 Alpha  occ. eigenvalues --   -1.13140  -1.13098  -1.13040  -1.13023  -1.13012
 Alpha  occ. eigenvalues --   -1.13005  -1.13002  -1.12871  -1.12853  -1.12830
 Alpha  occ. eigenvalues --   -0.20834  -0.13674  -0.13127  -0.11299
 Alpha virt. eigenvalues --   -0.05202  -0.04728  -0.04453  -0.03247  -0.02973
 Alpha virt. eigenvalues --   -0.02272  -0.01247  -0.00783   0.00030   0.00325
 Alpha virt. eigenvalues --    0.00402   0.00456   0.00950   0.01045   0.01067

  Beta  occ. eigenvalues --  -38.43590 -38.43587 -38.43408 -38.43405 -38.43274
  Beta  occ. eigenvalues --  -38.43233 -38.43205  -2.19569  -2.19566  -2.19509
  Beta  occ. eigenvalues --   -2.19482  -2.19422  -2.19376  -2.19224  -1.13568
  Beta  occ. eigenvalues --   -1.13407  -1.13361  -1.13307  -1.13295  -1.13282
  Beta  occ. eigenvalues --   -1.13232  -1.13202  -1.13184  -1.13154  -1.13144
  Beta  occ. eigenvalues --   -1.13091  -1.13040  -1.12999  -1.12978  -1.12948
  Beta  occ. eigenvalues --   -1.12927  -1.12922  -1.12847  -1.12829  -1.12796
  Beta  occ. eigenvalues --   -0.20064  -0.13344  -0.12790
  Beta virt. eigenvalues --   -0.07192  -0.05218  -0.04714  -0.04449  -0.02351
  Beta virt. eigenvalues --   -0.02089  -0.01202  -0.01178  -0.00729   0.00154
  Beta virt. eigenvalues --    0.00324   0.00400   0.00405   0.00983   0.01048

 Mulliken charges and spin densities:
               1          2
     1  Na   0.706992   0.007421
     2  Na  -1.107995   0.424538
     3  Na  -0.941837   0.621185
     4  Na   0.705200   0.007695
     5  Na   0.118158  -0.029408
     6  Na   0.397052  -0.002269
     7  Na   0.122430  -0.029161
 Sum of Mulliken charges =  -0.00000   1.00000

 Dipole moment (field-independent basis, Debye):
    X=             -0.0011    Y=              0.1897    Z=              0.1950  Tot=              0.2721
 Quadrupole moment (field-independent basis, Debye-Ang):
   XX=            -57.3310   YY=            -64.6527   ZZ=            -72.8513
   XY=              0.0035   XZ=             -0.0025   YZ=              0.8024

 Normal termination of Gaussian 16 at Mon Nov 13 16:37:39 2023.
