 Gaussian 16, Revision B.01,
 Gaussian 16:  ES64L-G16RevB.01 20-Dec-2017

 -------------------------
 #P B3LYP/6-311+g(d) force
 -------------------------

 ------------------------------
 Gaussian input prepared by ASE
 ------------------------------
 Symbolic Z-matrix:
 Charge =  0 Multiplicity = 2

                         Standard orientation:
 ---------------------------------------------------------------------
 Center     Atomic      Atomic             Coordinates (Angstroms)
 Number     Number       Type             X           Y           Z
 ---------------------------------------------------------------------
      1         11           0       -1.484213    0.942218   -0.583063
      2         11           0        3.576851   -1.874685    0.406737
      3         11           0       -3.482355   -0.914627    0.665582
      4         11           0       -1.125303   -2.024073   -0.821164
      5         11           0        1.274073   -0.231337   -0.596111
      6         11           0        0.335295    1.366743    1.766378
      7         11           0        0.905651    2.735760   -0.838359
 ---------------------------------------------------------------------

 SCF Done:  E(UB3LYP) =  -1136.09971325     A.U. after   21 cycles

 The electronic state is 2-A.
 Alpha  occ. eigenvalues --  -38.44546 -38.44204 -38.44120 -38.43987 -38.43980
 Alpha  occ. eigenvalues --  -38.43374 -38.42626  -2.20442  -2.20172  -2.20115
 Alpha  occ. eigenvalues --   -2.19980  -2.19777  -2.19565  -2.18800  -1.14181
 Alpha  occ. eigenvalues --   -1.14129  -1.14055  -1.13942  -1.13917  -1.13787
 Alpha  occ. eigenvalues --   -1.13782  -1.13759  -1.13733  -1.13677  -1.13632
 Alpha  occ. eigenvalues --   -1.13540  -1.13484  -1.13417  -1.13412  -1.13297
 Alpha  occ. eigenvalues --   -1.13202  -1.13139  -1.12506  -1.12446  -1.12404
 Alpha  occ. eigenvalues --   -0.19599  -0.13900  -0.12297  -0.10659
 Alpha virt. eigenvalues --   -0.06434  -0.05262  -0.04107  -0.03321  -0.02608
 Alpha virt. eigenvalues --   -0.01899  -0.01706  -0.01420  -0.00331  -0.00017
 Alpha virt. eigenvalues --    0.00143   0.00355   0.00728   0.00763   0.00820

  Beta  occ. eigenvalues --  -38.44532 -38.44178 -38.44057 -38.43978 -38.43966
  Beta  occ. eigenvalues --  -38.43337 -38.42591  -2.20417  -2.20127  -2.19999
  Beta  occ. eigenvalues --   -2.19945  -2.19773  -2.19510  -2.18747  -1.14166
  Beta  occ. eigenvalues --   -1.14110  -1.14027  -1.13902  -1.13861  -1.13742
  Beta  occ. eigenvalues --   -1.13727  -1.13713  -1.13654  -1.13623  -1.13604
  Beta  occ. eigenvalues --   -1.13486  -1.13482  -1.13413  -1.13407  -1.13262
  Beta  occ. eigenvalues --   -1.13112  -1.13080  -1.12478  -1.12403  -1.12309
  Beta  occ. eigenvalues --   -0.18780  -0.13703  -0.12098
  Beta virt. eigenvalues --   -0.06796  -0.06066  -0.05119  -0.03879  -0.02838
  Beta virt. eigenvalues --   -0.02195  -0.01533  -0.01445  -0.00958  -0.00102
  Beta virt. eigenvalues --    0.00064   0.00197   0.00463   0.00791   0.00832

 Mulliken charges and spin densities:
               1          2
     1  Na   0.449549   0.573413
     2  Na  -0.081121  -0.093910
     3  Na   0.409307   0.066747
     4  Na  -0.397727   0.025924
     5  Na  -0.633577   0.200049
     6  Na  -0.902950   0.468469
     7  Na   1.156519  -0.240691
 Sum of Mulliken charges =  -0.00000   1.00000

 Dipole moment (field-independent basis, Debye):
    X=             -0.5908    Y=              0.1965    Z=              0.3311  Tot=              0.7052
 Quadrupole moment (field-independent basis, Debye-Ang):
   XX=            -56.3452   YY=            -62.9016   ZZ=            -72.0678
   XY=              3.7158   XZ=             -0.9226   YZ=             -2.5235

 Normal termination of Gaussian 16 at Mon Nov 13 17:34:10 2023.
