 Gaussian 16, Revision B.01,
 Gaussian 16:  ES64L-G16RevB.01 20-Dec-2017

 -------------------------
 #P B3LYP/6-311+g(d) force
 -------------------------

 ------------------------------
 Gaussian input prepared by ASE
 ------------------------------
 Symbolic Z-matrix:
 Charge =  0 Multiplicity = 2

                         Standard orientation:
 ---------------------------------------------------------------------
 Center     Atomic      Atomic             Coordinates (Angstroms)
 Number     Number       Type             X           Y           Z
 ---------------------------------------------------------------------
      1         11           0       -0.289803   -1.025666   -0.504764
      2         11           0       -2.420769    0.936331   -1.269455
      3         11           0       -3.177057   -1.676873   -0.002038
      4         11           0       -1.814912    0.445039    1.622053
      5         11           0        0.167419    1.904495   -0.096318
      6         11           0        2.349973   -0.054799    0.551923
      7         11           0        5.185150   -0.528526   -0.301401
 ---------------------------------------------------------------------

 SCF Done:  E(UB3LYP) =  -1136.08487892     A.U. after   28 cycles

 The electronic state is 2-A.
 Alpha  occ. eigenvalues --  -38.45583 -38.44847 -38.44621 -38.44084 -38.43505
 Alpha  occ. eigenvalues --  -38.43216 -38.42821  -2.21733  -2.20947  -2.20414
 Alpha  occ. eigenvalues --   -2.20198  -2.19485  -2.19220  -2.18913  -1.15476
 Alpha  occ. eigenvalues --   -1.15421  -1.15390  -1.14673  -1.14596  -1.14561
 Alpha  occ. eigenvalues --   -1.14120  -1.14059  -1.14056  -1.13889  -1.13841
 Alpha  occ. eigenvalues --   -1.13802  -1.13210  -1.13162  -1.13090  -1.12912
 Alpha  occ. eigenvalues --   -1.12870  -1.12839  -1.12611  -1.12556  -1.12526
 Alpha  occ. eigenvalues --   -0.20379  -0.14482  -0.11879  -0.11012
 Alpha virt. eigenvalues --   -0.08148  -0.04675  -0.03809  -0.03278  -0.03014
 Alpha virt. eigenvalues --   -0.02086  -0.02000  -0.01388  -0.01073  -0.00369
 Alpha virt. eigenvalues --   -0.00142   0.00254   0.00352   0.00605   0.00806

  Beta  occ. eigenvalues --  -38.45551 -38.44789 -38.44623 -38.44000 -38.43497
  Beta  occ. eigenvalues --  -38.43206 -38.42805  -2.21684  -2.20846  -2.20418
  Beta  occ. eigenvalues --   -2.20047  -2.19472  -2.19207  -2.18892  -1.15448
  Beta  occ. eigenvalues --   -1.15377  -1.15293  -1.14610  -1.14495  -1.14487
  Beta  occ. eigenvalues --   -1.14124  -1.14062  -1.14058  -1.13796  -1.13731
  Beta  occ. eigenvalues --   -1.13686  -1.13206  -1.13158  -1.13058  -1.12906
  Beta  occ. eigenvalues --   -1.12865  -1.12788  -1.12604  -1.12544  -1.12456
  Beta  occ. eigenvalues --   -0.19538  -0.14365  -0.11417
  Beta virt. eigenvalues --   -0.07886  -0.07005  -0.04644  -0.03513  -0.03022
  Beta virt. eigenvalues --   -0.02788  -0.01472  -0.01347  -0.01124  -0.00565
  Beta virt. eigenvalues --   -0.00222  -0.00120   0.00277   0.00482   0.00660

 Mulliken charges and spin densities:
               1          2
     1  Na  -1.133730   0.560881
     2  Na  -0.167818   0.283070
     3  Na   0.941551  -0.090122
     4  Na   0.074594   0.167379
     5  Na  -0.173991   0.036075
     6  Na   0.353224   0.000877
     7  Na   0.106170   0.041839
 Sum of Mulliken charges =  -0.00000   1.00000

 Dipole moment (field-independent basis, Debye):
    X=             -0.3692    Y=              0.4631    Z=              0.3436  Tot=              0.6847
 Quadrupole moment (field-independent basis, Debye-Ang):
   XX=            -57.0876   YY=            -70.5060   ZZ=            -70.8510
   XY=             -1.2637   XZ=             -4.0144   YZ=              2.8797

 Normal termination of Gaussian 16 at Mon Nov 13 16:32:27 2023.
