 Gaussian 16, Revision B.01,
 Gaussian 16:  ES64L-G16RevB.01 20-Dec-2017

 -------------------------
 #P B3LYP/6-311+g(d) force
 -------------------------

 ------------------------------
 Gaussian input prepared by ASE
 ------------------------------
 Symbolic Z-matrix:
 Charge =  0 Multiplicity = 2

                         Standard orientation:
 ---------------------------------------------------------------------
 Center     Atomic      Atomic             Coordinates (Angstroms)
 Number     Number       Type             X           Y           Z
 ---------------------------------------------------------------------
      1         11           0       -0.175003    1.153234   -0.116013
      2         11           0       -1.894403   -0.611165    1.585382
      3         11           0       -3.158272    1.229600   -0.417219
      4         11           0       -1.620382   -1.168730   -1.346121
      5         11           0        0.696376   -1.656882    0.490666
      6         11           0        3.448413   -0.887926   -0.437280
      7         11           0        2.703271    1.941869    0.240584
 ---------------------------------------------------------------------

 SCF Done:  E(UB3LYP) =  -1136.09117193     A.U. after   26 cycles

 The electronic state is 2-A.
 Alpha  occ. eigenvalues --  -38.45592 -38.44354 -38.44072 -38.44054 -38.43923
 Alpha  occ. eigenvalues --  -38.43908 -38.42492  -2.21471  -2.20342  -2.20179
 Alpha  occ. eigenvalues --   -2.20073  -2.19998  -2.19939  -2.18569  -1.15157
 Alpha  occ. eigenvalues --   -1.15135  -1.15102  -1.14195  -1.14032  -1.14000
 Alpha  occ. eigenvalues --   -1.13980  -1.13852  -1.13828  -1.13762  -1.13750
 Alpha  occ. eigenvalues --   -1.13681  -1.13632  -1.13590  -1.13580  -1.13571
 Alpha  occ. eigenvalues --   -1.13561  -1.13526  -1.12299  -1.12214  -1.12175
 Alpha  occ. eigenvalues --   -0.20055  -0.15180  -0.11564  -0.10785
 Alpha virt. eigenvalues --   -0.07281  -0.05687  -0.03888  -0.03286  -0.02710
 Alpha virt. eigenvalues --   -0.02015  -0.01885  -0.01061  -0.00556  -0.00153
 Alpha virt. eigenvalues --    0.00063   0.00291   0.00534   0.00726   0.00877

  Beta  occ. eigenvalues --  -38.45581 -38.44334 -38.44053 -38.44003 -38.43894
  Beta  occ. eigenvalues --  -38.43851 -38.42472  -2.21450  -2.20310  -2.20059
  Beta  occ. eigenvalues --   -2.20026  -2.19938  -2.19896  -2.18541  -1.15146
  Beta  occ. eigenvalues --   -1.15121  -1.15084  -1.14167  -1.14006  -1.13935
  Beta  occ. eigenvalues --   -1.13929  -1.13777  -1.13750  -1.13725  -1.13679
  Beta  occ. eigenvalues --   -1.13618  -1.13588  -1.13565  -1.13549  -1.13523
  Beta  occ. eigenvalues --   -1.13502  -1.13470  -1.12283  -1.12179  -1.12122
  Beta  occ. eigenvalues --   -0.19315  -0.14955  -0.11296
  Beta virt. eigenvalues --   -0.07109  -0.06683  -0.05546  -0.03489  -0.03072
  Beta virt. eigenvalues --   -0.02641  -0.01388  -0.01183  -0.00839  -0.00130
  Beta virt. eigenvalues --   -0.00056   0.00153   0.00301   0.00652   0.00820

 Mulliken charges and spin densities:
               1          2
     1  Na  -0.688686   0.487709
     2  Na  -0.246708  -0.078381
     3  Na   0.476779   0.036342
     4  Na  -0.428391   0.260624
     5  Na   0.611550   0.351745
     6  Na   0.092951   0.033638
     7  Na   0.182506  -0.091677
 Sum of Mulliken charges =  -0.00000   1.00000

 Dipole moment (field-independent basis, Debye):
    X=              0.5012    Y=             -0.3262    Z=              0.1617  Tot=              0.6194
 Quadrupole moment (field-independent basis, Debye-Ang):
   XX=            -46.9406   YY=            -74.3268   ZZ=            -72.4636
   XY=             -1.7491   XZ=             -2.4246   YZ=              0.4062

 Normal termination of Gaussian 16 at Mon Nov 13 16:32:53 2023.
