 Gaussian 16, Revision B.01,
 Gaussian 16:  ES64L-G16RevB.01 20-Dec-2017

 -------------------------
 #P B3LYP/6-311+g(d) force
 -------------------------

 ------------------------------
 Gaussian input prepared by ASE
 ------------------------------
 Symbolic Z-matrix:
 Charge =  0 Multiplicity = 2

                         Standard orientation:
 ---------------------------------------------------------------------
 Center     Atomic      Atomic             Coordinates (Angstroms)
 Number     Number       Type             X           Y           Z
 ---------------------------------------------------------------------
      1         11           0       -0.944943   -1.463120    1.295707
      2         11           0        0.608113    1.096345    1.485600
      3         11           0        4.008212   -1.356039   -0.395078
      4         11           0        1.091755   -0.787319   -0.799847
      5         11           0        0.011938    3.361967   -0.390328
      6         11           0       -1.475517    0.764662   -0.638168
      7         11           0       -3.299558   -1.616496   -0.557887
 ---------------------------------------------------------------------

 SCF Done:  E(UB3LYP) =  -1136.10013903     A.U. after   21 cycles

 The electronic state is 2-A.
 Alpha  occ. eigenvalues --  -38.44297 -38.44137 -38.43811 -38.43684 -38.43681
 Alpha  occ. eigenvalues --  -38.43627 -38.43498  -2.20202  -2.19946  -2.19907
 Alpha  occ. eigenvalues --   -2.19784  -2.19680  -2.19663  -2.19586  -1.13944
 Alpha  occ. eigenvalues --   -1.13886  -1.13833  -1.13816  -1.13675  -1.13587
 Alpha  occ. eigenvalues --   -1.13580  -1.13577  -1.13574  -1.13531  -1.13461
 Alpha  occ. eigenvalues --   -1.13413  -1.13402  -1.13344  -1.13284  -1.13275
 Alpha  occ. eigenvalues --   -1.13239  -1.13220  -1.13197  -1.13181  -1.13128
 Alpha  occ. eigenvalues --   -0.19747  -0.13487  -0.12691  -0.11011
 Alpha virt. eigenvalues --   -0.06574  -0.04842  -0.04302  -0.03016  -0.02654
 Alpha virt. eigenvalues --   -0.02117  -0.01812  -0.01415  -0.00568  -0.00070
 Alpha virt. eigenvalues --    0.00036   0.00530   0.00738   0.00765   0.00776

  Beta  occ. eigenvalues --  -38.44277 -38.44114 -38.43748 -38.43671 -38.43620
  Beta  occ. eigenvalues --  -38.43614 -38.43465  -2.20166  -2.19903  -2.19798
  Beta  occ. eigenvalues --   -2.19678  -2.19648  -2.19619  -2.19568  -1.13920
  Beta  occ. eigenvalues --   -1.13848  -1.13792  -1.13761  -1.13638  -1.13557
  Beta  occ. eigenvalues --   -1.13548  -1.13525  -1.13493  -1.13457  -1.13421
  Beta  occ. eigenvalues --   -1.13365  -1.13310  -1.13302  -1.13232  -1.13217
  Beta  occ. eigenvalues --   -1.13204  -1.13195  -1.13181  -1.13131  -1.13101
  Beta  occ. eigenvalues --   -0.18994  -0.13301  -0.12331
  Beta virt. eigenvalues --   -0.07151  -0.06250  -0.04647  -0.04003  -0.02586
  Beta virt. eigenvalues --   -0.02245  -0.01892  -0.01354  -0.01103  -0.00198
  Beta virt. eigenvalues --   -0.00013   0.00110   0.00711   0.00806   0.00830

 Mulliken charges and spin densities:
               1          2
     1  Na  -0.101992   0.097362
     2  Na   0.248437   0.073684
     3  Na  -0.161604   0.002270
     4  Na  -0.459317   0.310146
     5  Na   0.839972   0.021822
     6  Na  -0.676695   0.412141
     7  Na   0.311200   0.082575
 Sum of Mulliken charges =  -0.00000   1.00000

 Dipole moment (field-independent basis, Debye):
    X=             -0.2099    Y=              0.1507    Z=              0.4864  Tot=              0.5508
 Quadrupole moment (field-independent basis, Debye-Ang):
   XX=            -57.3763   YY=            -62.9836   ZZ=            -71.5228
   XY=              4.7250   XZ=              2.3651   YZ=             -0.8386

 Normal termination of Gaussian 16 at Mon Nov 13 19:08:59 2023.
