 Gaussian 16, Revision B.01,
 Gaussian 16:  ES64L-G16RevB.01 20-Dec-2017

 -------------------------
 #P B3LYP/6-311+g(d) force
 -------------------------

 ------------------------------
 Gaussian input prepared by ASE
 ------------------------------
 Symbolic Z-matrix:
 Charge =  0 Multiplicity = 2

                         Standard orientation:
 ---------------------------------------------------------------------
 Center     Atomic      Atomic             Coordinates (Angstroms)
 Number     Number       Type             X           Y           Z
 ---------------------------------------------------------------------
      1         11           0       -0.731024   -1.401400   -0.123458
      2         11           0        0.673704    3.381219   -0.949837
      3         11           0       -3.536808   -1.431513   -1.182563
      4         11           0       -2.743284    0.568787    0.908085
      5         11           0        0.185184    1.200939    1.053507
      6         11           0        1.972605   -1.205728    1.162980
      7         11           0        4.179624   -1.112304   -0.868714
 ---------------------------------------------------------------------

 SCF Done:  E(UB3LYP) =  -1136.09708652     A.U. after   21 cycles

 The electronic state is 2-A.
 Alpha  occ. eigenvalues --  -38.45428 -38.44469 -38.44375 -38.43978 -38.43974
 Alpha  occ. eigenvalues --  -38.43394 -38.42867  -2.21384  -2.20447  -2.20292
 Alpha  occ. eigenvalues --   -2.19893  -2.19796  -2.19379  -2.18950  -1.15135
 Alpha  occ. eigenvalues --   -1.15065  -1.14995  -1.14195  -1.14127  -1.14071
 Alpha  occ. eigenvalues --   -1.13977  -1.13917  -1.13915  -1.13545  -1.13543
 Alpha  occ. eigenvalues --   -1.13503  -1.13489  -1.13431  -1.13409  -1.13107
 Alpha  occ. eigenvalues --   -1.13039  -1.12999  -1.12651  -1.12591  -1.12559
 Alpha  occ. eigenvalues --   -0.18711  -0.14283  -0.12257  -0.10761
 Alpha virt. eigenvalues --   -0.06870  -0.05050  -0.04181  -0.03636  -0.02997
 Alpha virt. eigenvalues --   -0.02329  -0.01843  -0.01012  -0.00639  -0.00333
 Alpha virt. eigenvalues --   -0.00128   0.00251   0.00369   0.00561   0.00725

  Beta  occ. eigenvalues --  -38.45429 -38.44402 -38.44350 -38.43949 -38.43917
  Beta  occ. eigenvalues --  -38.43372 -38.42839  -2.21389  -2.20411  -2.20166
  Beta  occ. eigenvalues --   -2.19839  -2.19687  -2.19349  -2.18909  -1.15128
  Beta  occ. eigenvalues --   -1.15048  -1.15003  -1.14133  -1.14115  -1.14035
  Beta  occ. eigenvalues --   -1.13897  -1.13832  -1.13828  -1.13512  -1.13505
  Beta  occ. eigenvalues --   -1.13465  -1.13419  -1.13356  -1.13335  -1.13065
  Beta  occ. eigenvalues --   -1.13026  -1.12940  -1.12623  -1.12577  -1.12467
  Beta  occ. eigenvalues --   -0.18100  -0.13779  -0.11860
  Beta virt. eigenvalues --   -0.07281  -0.06584  -0.04734  -0.03813  -0.03290
  Beta virt. eigenvalues --   -0.02822  -0.02226  -0.01243  -0.00883  -0.00353
  Beta virt. eigenvalues --   -0.00112   0.00049   0.00410   0.00484   0.00692

 Mulliken charges and spin densities:
               1          2
     1  Na  -0.829045  -0.009072
     2  Na   0.039203   0.177930
     3  Na   0.493601   0.144012
     4  Na   0.464014   0.079881
     5  Na  -0.293998   0.229705
     6  Na   0.106461  -0.056929
     7  Na   0.019764   0.434474
 Sum of Mulliken charges =  -0.00000   1.00000

 Dipole moment (field-independent basis, Debye):
    X=             -1.0135    Y=             -0.1415    Z=             -0.3480  Tot=              1.0809
 Quadrupole moment (field-independent basis, Debye-Ang):
   XX=            -60.4564   YY=            -72.5173   ZZ=            -65.6169
   XY=              0.5552   XZ=             -3.1193   YZ=              0.4745

 Normal termination of Gaussian 16 at Mon Nov 13 15:27:47 2023.
