 Gaussian 16, Revision B.01,
 Gaussian 16:  ES64L-G16RevB.01 20-Dec-2017

 -------------------------
 #P B3LYP/6-311+g(d) force
 -------------------------

 ------------------------------
 Gaussian input prepared by ASE
 ------------------------------
 Symbolic Z-matrix:
 Charge =  0 Multiplicity = 2

                         Standard orientation:
 ---------------------------------------------------------------------
 Center     Atomic      Atomic             Coordinates (Angstroms)
 Number     Number       Type             X           Y           Z
 ---------------------------------------------------------------------
      1         11           0        0.000566   -1.908088   -0.211624
      2         11           0       -0.000881    0.288242   -1.656947
      3         11           0        1.382646    1.693944    0.122785
      4         11           0       -1.383334    1.694246    0.121491
      5         11           0        2.378531   -0.762052   -0.052723
      6         11           0       -2.377539   -0.763598   -0.051457
      7         11           0        0.000010   -0.242694    1.728475
 ---------------------------------------------------------------------

 SCF Done:  E(UB3LYP) =  -1136.03498932     A.U. after   21 cycles

 The electronic state is 2-A.
 Alpha  occ. eigenvalues --  -38.44858 -38.44662 -38.44366 -38.44335 -38.44334
 Alpha  occ. eigenvalues --  -38.44018 -38.44018  -2.21282  -2.21034  -2.20730
 Alpha  occ. eigenvalues --   -2.20530  -2.20507  -2.20296  -2.20244  -1.15319
 Alpha  occ. eigenvalues --   -1.15178  -1.15084  -1.15014  -1.14809  -1.14741
 Alpha  occ. eigenvalues --   -1.14635  -1.14486  -1.14363  -1.14335  -1.14156
 Alpha  occ. eigenvalues --   -1.14080  -1.14068  -1.14062  -1.14020  -1.13847
 Alpha  occ. eigenvalues --   -1.13837  -1.13828  -1.13788  -1.13727  -1.13594
 Alpha  occ. eigenvalues --   -0.22598  -0.14319  -0.13065  -0.12674
 Alpha virt. eigenvalues --   -0.05338  -0.04182  -0.04008  -0.03902  -0.03204
 Alpha virt. eigenvalues --   -0.02730  -0.01069  -0.00366  -0.00086   0.00306
 Alpha virt. eigenvalues --    0.00861   0.00962   0.01083   0.01215   0.01305

  Beta  occ. eigenvalues --  -38.44761 -38.44563 -38.44341 -38.44322 -38.44321
  Beta  occ. eigenvalues --  -38.44000 -38.44000  -2.21111  -2.20868  -2.20684
  Beta  occ. eigenvalues --   -2.20514  -2.20489  -2.20272  -2.20220  -1.15247
  Beta  occ. eigenvalues --   -1.15063  -1.14972  -1.14928  -1.14754  -1.14627
  Beta  occ. eigenvalues --   -1.14552  -1.14479  -1.14318  -1.14297  -1.14082
  Beta  occ. eigenvalues --   -1.14043  -1.14007  -1.13993  -1.13968  -1.13838
  Beta  occ. eigenvalues --   -1.13791  -1.13749  -1.13728  -1.13719  -1.13586
  Beta  occ. eigenvalues --   -0.21740  -0.13891  -0.12657
  Beta virt. eigenvalues --   -0.08368  -0.05382  -0.04158  -0.03933  -0.02868
  Beta virt. eigenvalues --   -0.02266  -0.01675  -0.00989  -0.00322   0.00057
  Beta virt. eigenvalues --    0.00338   0.00873   0.00962   0.01104   0.01235

 Mulliken charges and spin densities:
               1          2
     1  Na   0.288352   0.087890
     2  Na  -0.302704   0.414016
     3  Na   0.205061   0.061662
     4  Na   0.205184   0.061572
     5  Na  -0.085961  -0.053755
     6  Na  -0.083982  -0.053376
     7  Na  -0.225950   0.481992
 Sum of Mulliken charges =  -0.00000   1.00000

 Dipole moment (field-independent basis, Debye):
    X=              0.0004    Y=              0.0542    Z=              0.1511  Tot=              0.1606
 Quadrupole moment (field-independent basis, Debye-Ang):
   XX=            -60.0205   YY=            -71.2769   ZZ=            -68.2147
   XY=             -0.0013   XZ=             -0.0026   YZ=              0.8382

 Normal termination of Gaussian 16 at Mon Nov 13 20:42:18 2023.
