 Gaussian 16, Revision B.01,
 Gaussian 16:  ES64L-G16RevB.01 20-Dec-2017

 -------------------------
 #P B3LYP/6-311+g(d) force
 -------------------------

 ------------------------------
 Gaussian input prepared by ASE
 ------------------------------
 Symbolic Z-matrix:
 Charge =  0 Multiplicity = 2

                         Standard orientation:
 ---------------------------------------------------------------------
 Center     Atomic      Atomic             Coordinates (Angstroms)
 Number     Number       Type             X           Y           Z
 ---------------------------------------------------------------------
      1         11           0       -1.573032   -1.878167   -0.803239
      2         11           0       -1.794877   -0.642546    1.909358
      3         11           0       -3.156289    0.643999   -0.435991
      4         11           0       -0.660997    2.263257   -0.850134
      5         11           0        0.675183   -0.192236    0.257777
      6         11           0        3.374167    0.671615    1.239184
      7         11           0        3.135847   -0.865923   -1.316955
 ---------------------------------------------------------------------

 SCF Done:  E(UB3LYP) =  -1136.09175254     A.U. after  125 cycles

 The electronic state is 2-A.
 Alpha  occ. eigenvalues --  -38.45370 -38.45169 -38.44799 -38.43960 -38.43666
 Alpha  occ. eigenvalues --  -38.43592 -38.42382  -2.21257  -2.21056  -2.20798
 Alpha  occ. eigenvalues --   -2.19964  -2.19786  -2.19657  -2.18271  -1.15006
 Alpha  occ. eigenvalues --   -1.14936  -1.14866  -1.14749  -1.14670  -1.14650
 Alpha  occ. eigenvalues --   -1.14498  -1.14489  -1.14413  -1.13768  -1.13626
 Alpha  occ. eigenvalues --   -1.13569  -1.13538  -1.13426  -1.13413  -1.13299
 Alpha  occ. eigenvalues --   -1.13280  -1.13223  -1.11982  -1.11933  -1.11900
 Alpha  occ. eigenvalues --   -0.19295  -0.15116  -0.10970  -0.10786
 Alpha virt. eigenvalues --   -0.07175  -0.05887  -0.03986  -0.03135  -0.02838
 Alpha virt. eigenvalues --   -0.02149  -0.01760  -0.01236  -0.00635  -0.00192
 Alpha virt. eigenvalues --    0.00114   0.00268   0.00349   0.00667   0.00718

  Beta  occ. eigenvalues --  -38.45347 -38.45150 -38.44773 -38.43903 -38.43633
  Beta  occ. eigenvalues --  -38.43549 -38.42406  -2.21214  -2.21020  -2.20749
  Beta  occ. eigenvalues --   -2.19859  -2.19721  -2.19599  -2.18318  -1.14982
  Beta  occ. eigenvalues --   -1.14895  -1.14839  -1.14718  -1.14648  -1.14617
  Beta  occ. eigenvalues --   -1.14467  -1.14424  -1.14404  -1.13695  -1.13555
  Beta  occ. eigenvalues --   -1.13486  -1.13458  -1.13398  -1.13326  -1.13256
  Beta  occ. eigenvalues --   -1.13220  -1.13167  -1.12022  -1.11955  -1.11914
  Beta  occ. eigenvalues --   -0.18606  -0.15003  -0.10767
  Beta virt. eigenvalues --   -0.07056  -0.06942  -0.05025  -0.03850  -0.02987
  Beta virt. eigenvalues --   -0.02774  -0.01552  -0.01252  -0.00608  -0.00379
  Beta virt. eigenvalues --   -0.00095   0.00111   0.00377   0.00482   0.00752

 Mulliken charges and spin densities:
               1          2
     1  Na   0.559320   0.053218
     2  Na   0.046767  -0.413430
     3  Na   0.555769   0.378299
     4  Na  -0.026949  -0.357169
     5  Na  -2.158584   1.629943
     6  Na   0.394770  -0.247131
     7  Na   0.628907  -0.043730
 Sum of Mulliken charges =  -0.00000   1.00000

 Dipole moment (field-independent basis, Debye):
    X=              1.2832    Y=             -0.1100    Z=              0.0531  Tot=              1.2890
 Quadrupole moment (field-independent basis, Debye-Ang):
   XX=            -45.9937   YY=            -78.3627   ZZ=            -67.9659
   XY=              1.6936   XZ=             -0.4921   YZ=              5.0213

 Normal termination of Gaussian 16 at Mon Nov 13 17:41:09 2023.
