 Gaussian 16, Revision B.01,
 Gaussian 16:  ES64L-G16RevB.01 20-Dec-2017

 -------------------------
 #P B3LYP/6-311+g(d) force
 -------------------------

 ------------------------------
 Gaussian input prepared by ASE
 ------------------------------
 Symbolic Z-matrix:
 Charge =  0 Multiplicity = 2

                         Standard orientation:
 ---------------------------------------------------------------------
 Center     Atomic      Atomic             Coordinates (Angstroms)
 Number     Number       Type             X           Y           Z
 ---------------------------------------------------------------------
      1         11           0        0.084599   -0.925198   -0.688332
      2         11           0        2.915978   -0.165347   -1.311330
      3         11           0        2.172287   -1.004496    1.467134
      4         11           0        1.226568    1.632467    0.393734
      5         11           0       -1.527857    2.832136    0.354236
      6         11           0       -2.686443    0.220544   -0.563557
      7         11           0       -2.185131   -2.590106    0.348114
 ---------------------------------------------------------------------

 SCF Done:  E(UB3LYP) =  -1136.10326699     A.U. after   20 cycles

 The electronic state is 2-A.
 Alpha  occ. eigenvalues --  -38.44243 -38.44175 -38.44090 -38.43972 -38.43820
 Alpha  occ. eigenvalues --  -38.43535 -38.43398  -2.20217  -2.20189  -2.20095
 Alpha  occ. eigenvalues --   -2.19887  -2.19862  -2.19706  -2.19289  -1.14038
 Alpha  occ. eigenvalues --   -1.13967  -1.13906  -1.13867  -1.13865  -1.13851
 Alpha  occ. eigenvalues --   -1.13819  -1.13742  -1.13636  -1.13634  -1.13577
 Alpha  occ. eigenvalues --   -1.13519  -1.13501  -1.13491  -1.13477  -1.13345
 Alpha  occ. eigenvalues --   -1.13331  -1.13273  -1.12965  -1.12932  -1.12906
 Alpha  occ. eigenvalues --   -0.19483  -0.14614  -0.12551  -0.10416
 Alpha virt. eigenvalues --   -0.05996  -0.05647  -0.04793  -0.03456  -0.02283
 Alpha virt. eigenvalues --   -0.02167  -0.01552  -0.01030  -0.00399  -0.00221
 Alpha virt. eigenvalues --    0.00211   0.00321   0.00674   0.00774   0.00812

  Beta  occ. eigenvalues --  -38.44239 -38.44116 -38.44026 -38.43974 -38.43794
  Beta  occ. eigenvalues --  -38.43502 -38.43399  -2.20210  -2.20083  -2.19980
  Beta  occ. eigenvalues --   -2.19866  -2.19847  -2.19655  -2.19292  -1.13999
  Beta  occ. eigenvalues --   -1.13946  -1.13904  -1.13853  -1.13789  -1.13763
  Beta  occ. eigenvalues --   -1.13738  -1.13659  -1.13612  -1.13566  -1.13546
  Beta  occ. eigenvalues --   -1.13504  -1.13482  -1.13471  -1.13410  -1.13302
  Beta  occ. eigenvalues --   -1.13280  -1.13212  -1.12965  -1.12933  -1.12902
  Beta  occ. eigenvalues --   -0.18785  -0.14432  -0.12417
  Beta virt. eigenvalues --   -0.06383  -0.05802  -0.05474  -0.04545  -0.03006
  Beta virt. eigenvalues --   -0.01957  -0.01823  -0.00924  -0.00804  -0.00342
  Beta virt. eigenvalues --    0.00088   0.00293   0.00439   0.00733   0.00889

 Mulliken charges and spin densities:
               1          2
     1  Na  -0.572076   0.780672
     2  Na   1.086847  -0.121291
     3  Na  -0.634045   0.179776
     4  Na  -0.090095   0.404280
     5  Na  -0.019723  -0.058325
     6  Na  -0.046686  -0.096577
     7  Na   0.275778  -0.088537
 Sum of Mulliken charges =  -0.00000   1.00000

 Dipole moment (field-independent basis, Debye):
    X=             -0.0828    Y=             -0.4318    Z=              0.3268  Tot=              0.5478
 Quadrupole moment (field-independent basis, Debye-Ang):
   XX=            -54.2718   YY=            -65.2090   ZZ=            -74.8384
   XY=             -0.0385   XZ=             -0.8910   YZ=             -1.7665

 Normal termination of Gaussian 16 at Mon Nov 13 15:44:59 2023.
