 Gaussian 16, Revision B.01,
 Gaussian 16:  ES64L-G16RevB.01 20-Dec-2017

 -------------------------
 #P B3LYP/6-311+g(d) force
 -------------------------

 ------------------------------
 Gaussian input prepared by ASE
 ------------------------------
 Symbolic Z-matrix:
 Charge =  0 Multiplicity = 2

                         Standard orientation:
 ---------------------------------------------------------------------
 Center     Atomic      Atomic             Coordinates (Angstroms)
 Number     Number       Type             X           Y           Z
 ---------------------------------------------------------------------
      1         11           0       -2.749008   -1.588869    0.911605
      2         11           0        3.376063    0.803907   -1.753125
      3         11           0        1.792135    0.726745    2.741327
      4         11           0        2.069497   -0.969999    0.281830
      5         11           0       -0.396214   -2.292346   -0.807385
      6         11           0       -1.868001    0.284368   -1.257561
      7         11           0       -2.224472    3.036194   -0.116690
 ---------------------------------------------------------------------

 SCF Done:  E(UB3LYP) =  -1136.09714879     A.U. after   21 cycles

 The electronic state is 2-A.
 Alpha  occ. eigenvalues --  -38.45662 -38.45239 -38.45042 -38.43819 -38.43635
 Alpha  occ. eigenvalues --  -38.43535 -38.42797  -2.21533  -2.21050  -2.20875
 Alpha  occ. eigenvalues --   -2.19792  -2.19605  -2.19525  -2.18604  -1.15249
 Alpha  occ. eigenvalues --   -1.15181  -1.15156  -1.14733  -1.14676  -1.14669
 Alpha  occ. eigenvalues --   -1.14561  -1.14480  -1.14475  -1.13536  -1.13530
 Alpha  occ. eigenvalues --   -1.13415  -1.13290  -1.13240  -1.13219  -1.13205
 Alpha  occ. eigenvalues --   -1.13163  -1.13154  -1.12285  -1.12247  -1.12242
 Alpha  occ. eigenvalues --   -0.17862  -0.14146  -0.11631  -0.11274
 Alpha virt. eigenvalues --   -0.06753  -0.05179  -0.04197  -0.03982  -0.02974
 Alpha virt. eigenvalues --   -0.02508  -0.02046  -0.00727  -0.00603  -0.00256
 Alpha virt. eigenvalues --    0.00029   0.00073   0.00200   0.00508   0.00563

  Beta  occ. eigenvalues --  -38.45665 -38.45173 -38.44927 -38.43811 -38.43620
  Beta  occ. eigenvalues --  -38.43529 -38.42802  -2.21538  -2.20927  -2.20662
  Beta  occ. eigenvalues --   -2.19778  -2.19589  -2.19512  -2.18613  -1.15252
  Beta  occ. eigenvalues --   -1.15181  -1.15160  -1.14654  -1.14592  -1.14581
  Beta  occ. eigenvalues --   -1.14417  -1.14336  -1.14328  -1.13527  -1.13524
  Beta  occ. eigenvalues --   -1.13393  -1.13241  -1.13217  -1.13194  -1.13191
  Beta  occ. eigenvalues --   -1.13159  -1.13145  -1.12291  -1.12252  -1.12249
  Beta  occ. eigenvalues --   -0.17429  -0.13590  -0.11311
  Beta virt. eigenvalues --   -0.07663  -0.06421  -0.04854  -0.03936  -0.03719
  Beta virt. eigenvalues --   -0.02367  -0.02030  -0.01827  -0.00634  -0.00347
  Beta virt. eigenvalues --   -0.00093   0.00138   0.00235   0.00476   0.00600

 Mulliken charges and spin densities:
               1          2
     1  Na  -0.391124   0.009365
     2  Na  -0.382075   0.454514
     3  Na  -0.036624   0.703856
     4  Na   0.371036  -0.479413
     5  Na   1.304213   0.518805
     6  Na  -0.629793  -0.081592
     7  Na  -0.235631  -0.125534
 Sum of Mulliken charges =  -0.00000   1.00000

 Dipole moment (field-independent basis, Debye):
    X=              0.1461    Y=             -0.5038    Z=              0.7007  Tot=              0.8753
 Quadrupole moment (field-independent basis, Debye-Ang):
   XX=            -63.5906   YY=            -71.2410   ZZ=            -64.5961
   XY=              8.4192   XZ=             -7.5540   YZ=              0.5146

 Normal termination of Gaussian 16 at Mon Nov 13 15:03:16 2023.
