 Gaussian 16, Revision B.01,
 Gaussian 16:  ES64L-G16RevB.01 20-Dec-2017

 -------------------------
 #P B3LYP/6-311+g(d) force
 -------------------------

 ------------------------------
 Gaussian input prepared by ASE
 ------------------------------
 Symbolic Z-matrix:
 Charge =  0 Multiplicity = 2

                         Standard orientation:
 ---------------------------------------------------------------------
 Center     Atomic      Atomic             Coordinates (Angstroms)
 Number     Number       Type             X           Y           Z
 ---------------------------------------------------------------------
      1         11           0       -1.754759    0.366195    1.807556
      2         11           0       -2.727904   -1.921520    0.125341
      3         11           0       -2.317521    2.045549   -0.614940
      4         11           0       -0.999115   -0.384152   -1.789266
      5         11           0        0.913128   -0.147348    0.517440
      6         11           0        3.359304    1.512126    0.052920
      7         11           0        3.526866   -1.470850   -0.099051
 ---------------------------------------------------------------------

 SCF Done:  E(UB3LYP) =  -1136.08967540     A.U. after   33 cycles

 The electronic state is 2-A.
 Alpha  occ. eigenvalues --  -38.45656 -38.45489 -38.44525 -38.43821 -38.43738
 Alpha  occ. eigenvalues --  -38.43692 -38.43447  -2.21530  -2.21365  -2.20601
 Alpha  occ. eigenvalues --   -2.19845  -2.19767  -2.19598  -2.19367  -1.15297
 Alpha  occ. eigenvalues --   -1.15209  -1.15165  -1.15070  -1.14994  -1.14952
 Alpha  occ. eigenvalues --   -1.14351  -1.14305  -1.14182  -1.13556  -1.13526
 Alpha  occ. eigenvalues --   -1.13488  -1.13479  -1.13446  -1.13409  -1.13225
 Alpha  occ. eigenvalues --   -1.13213  -1.13185  -1.13021  -1.13004  -1.12961
 Alpha  occ. eigenvalues --   -0.19118  -0.15455  -0.11162  -0.10541
 Alpha virt. eigenvalues --   -0.07133  -0.06190  -0.04168  -0.03075  -0.02828
 Alpha virt. eigenvalues --   -0.02257  -0.02097  -0.01461  -0.00652  -0.00417
 Alpha virt. eigenvalues --    0.00117   0.00269   0.00402   0.00519   0.00612

  Beta  occ. eigenvalues --  -38.45661 -38.45501 -38.44507 -38.43735 -38.43679
  Beta  occ. eigenvalues --  -38.43655 -38.43407  -2.21540  -2.21390  -2.20573
  Beta  occ. eigenvalues --   -2.19689  -2.19618  -2.19578  -2.19299  -1.15305
  Beta  occ. eigenvalues --   -1.15222  -1.15166  -1.15085  -1.15007  -1.14969
  Beta  occ. eigenvalues --   -1.14302  -1.14265  -1.14180  -1.13480  -1.13426
  Beta  occ. eigenvalues --   -1.13393  -1.13366  -1.13344  -1.13310  -1.13205
  Beta  occ. eigenvalues --   -1.13162  -1.13133  -1.12960  -1.12938  -1.12910
  Beta  occ. eigenvalues --   -0.18452  -0.15277  -0.10258
  Beta virt. eigenvalues --   -0.06991  -0.06854  -0.06320  -0.03679  -0.03031
  Beta virt. eigenvalues --   -0.02508  -0.01526  -0.01442  -0.01201  -0.00587
  Beta virt. eigenvalues --   -0.00072   0.00162   0.00259   0.00513   0.00601

 Mulliken charges and spin densities:
               1          2
     1  Na   0.116427   0.608219
     2  Na   0.592230  -0.070364
     3  Na   0.390188   0.025416
     4  Na  -0.727663   0.497800
     5  Na  -1.210470   0.125002
     6  Na   0.512287  -0.062230
     7  Na   0.327001  -0.123844
 Sum of Mulliken charges =  -0.00000   1.00000

 Dipole moment (field-independent basis, Debye):
    X=              2.4533    Y=              0.0840    Z=             -0.1784  Tot=              2.4613
 Quadrupole moment (field-independent basis, Debye-Ang):
   XX=            -45.7496   YY=            -74.1069   ZZ=            -73.3540
   XY=              0.1520   XZ=             -1.4406   YZ=             -1.6751

 Normal termination of Gaussian 16 at Mon Nov 13 17:16:22 2023.
