 Gaussian 16, Revision B.01,
 Gaussian 16:  ES64L-G16RevB.01 20-Dec-2017

 -------------------------
 #P B3LYP/6-311+g(d) force
 -------------------------

 ------------------------------
 Gaussian input prepared by ASE
 ------------------------------
 Symbolic Z-matrix:
 Charge =  0 Multiplicity = 2

                         Standard orientation:
 ---------------------------------------------------------------------
 Center     Atomic      Atomic             Coordinates (Angstroms)
 Number     Number       Type             X           Y           Z
 ---------------------------------------------------------------------
      1         11           0        2.569079   -0.763058    1.536232
      2         11           0       -1.800046   -2.050398    0.145396
      3         11           0       -4.101803   -0.151470   -0.178608
      4         11           0       -2.143040    2.103351    0.129194
      5         11           0        0.182865    0.203166   -0.001142
      6         11           0        2.507255   -1.021910   -1.447883
      7         11           0        2.785690    1.680318   -0.183189
 ---------------------------------------------------------------------

 SCF Done:  E(UB3LYP) =  -1136.08527380     A.U. after   57 cycles

 The electronic state is 2-A.
 Alpha  occ. eigenvalues --  -38.45721 -38.45130 -38.44629 -38.44192 -38.43950
 Alpha  occ. eigenvalues --  -38.43734 -38.43599  -2.21604  -2.21122  -2.20615
 Alpha  occ. eigenvalues --   -2.20205  -2.20142  -2.19607  -2.19474  -1.15275
 Alpha  occ. eigenvalues --   -1.15270  -1.15245  -1.14875  -1.14775  -1.14753
 Alpha  occ. eigenvalues --   -1.14369  -1.14255  -1.14246  -1.13992  -1.13847
 Alpha  occ. eigenvalues --   -1.13811  -1.13797  -1.13780  -1.13737  -1.13291
 Alpha  occ. eigenvalues --   -1.13252  -1.13242  -1.13168  -1.13116  -1.13111
 Alpha  occ. eigenvalues --   -0.19297  -0.15661  -0.10987  -0.10342
 Alpha virt. eigenvalues --   -0.07710  -0.06270  -0.03892  -0.03521  -0.02974
 Alpha virt. eigenvalues --   -0.01899  -0.01728  -0.01445  -0.00703  -0.00530
 Alpha virt. eigenvalues --    0.00017   0.00050   0.00462   0.00537   0.00658

  Beta  occ. eigenvalues --  -38.45710 -38.45076 -38.44596 -38.44116 -38.43914
  Beta  occ. eigenvalues --  -38.43744 -38.43608  -2.21581  -2.21029  -2.20564
  Beta  occ. eigenvalues --   -2.20090  -2.20065  -2.19627  -2.19493  -1.15272
  Beta  occ. eigenvalues --   -1.15255  -1.15227  -1.14823  -1.14685  -1.14672
  Beta  occ. eigenvalues --   -1.14336  -1.14223  -1.14147  -1.13933  -1.13773
  Beta  occ. eigenvalues --   -1.13755  -1.13729  -1.13676  -1.13635  -1.13298
  Beta  occ. eigenvalues --   -1.13264  -1.13251  -1.13178  -1.13129  -1.13112
  Beta  occ. eigenvalues --   -0.18566  -0.15453  -0.10824
  Beta virt. eigenvalues --   -0.07442  -0.06290  -0.06145  -0.03476  -0.03394
  Beta virt. eigenvalues --   -0.02911  -0.01520  -0.01219  -0.01067  -0.00371
  Beta virt. eigenvalues --   -0.00027   0.00053   0.00125   0.00611   0.00656

 Mulliken charges and spin densities:
               1          2
     1  Na   0.368933   0.027551
     2  Na   2.821391  -0.164835
     3  Na  -0.241940   0.137864
     4  Na   0.869787  -0.354227
     5  Na  -4.829554   0.537427
     6  Na   0.402613   0.456965
     7  Na   0.608771   0.359255
 Sum of Mulliken charges =  -0.00000   1.00000

 Dipole moment (field-independent basis, Debye):
    X=             -0.2958    Y=             -0.1775    Z=              0.5953  Tot=              0.6880
 Quadrupole moment (field-independent basis, Debye-Ang):
   XX=            -45.7827   YY=            -74.5951   ZZ=            -73.6097
   XY=              0.7245   XZ=              4.9076   YZ=             -0.4395

 Normal termination of Gaussian 16 at Mon Nov 13 17:42:25 2023.
