 Gaussian 16, Revision B.01,
 Gaussian 16:  ES64L-G16RevB.01 20-Dec-2017

 -------------------------
 #P B3LYP/6-311+g(d) force
 -------------------------

 ------------------------------
 Gaussian input prepared by ASE
 ------------------------------
 Symbolic Z-matrix:
 Charge =  0 Multiplicity = 2

                         Standard orientation:
 ---------------------------------------------------------------------
 Center     Atomic      Atomic             Coordinates (Angstroms)
 Number     Number       Type             X           Y           Z
 ---------------------------------------------------------------------
      1         11           0        0.710775    0.074296   -1.763144
      2         11           0       -0.859109   -1.539041   -0.099347
      3         11           0       -3.442316   -0.174398    0.055150
      4         11           0       -1.109412    1.564230   -0.232433
      5         11           0        0.435741   -0.021229    1.894950
      6         11           0        1.992016    1.602554    0.196105
      7         11           0        2.272306   -1.506414   -0.051280
 ---------------------------------------------------------------------

 SCF Done:  E(UB3LYP) =  -1136.08341870     A.U. after   23 cycles

 The electronic state is 2-A.
 Alpha  occ. eigenvalues --  -38.45263 -38.44556 -38.44479 -38.43480 -38.43423
 Alpha  occ. eigenvalues --  -38.43039 -38.42856  -2.21163  -2.20808  -2.20638
 Alpha  occ. eigenvalues --   -2.19548  -2.19531  -2.19230  -2.19013  -1.14880
 Alpha  occ. eigenvalues --   -1.14841  -1.14777  -1.14578  -1.14524  -1.14450
 Alpha  occ. eigenvalues --   -1.14378  -1.14343  -1.14216  -1.13274  -1.13217
 Alpha  occ. eigenvalues --   -1.13196  -1.13188  -1.13174  -1.13064  -1.12961
 Alpha  occ. eigenvalues --   -1.12900  -1.12802  -1.12721  -1.12659  -1.12574
 Alpha  occ. eigenvalues --   -0.21240  -0.14461  -0.12135  -0.11820
 Alpha virt. eigenvalues --   -0.06515  -0.04177  -0.03922  -0.03484  -0.02614
 Alpha virt. eigenvalues --   -0.02519  -0.01998  -0.00567  -0.00172   0.00199
 Alpha virt. eigenvalues --    0.00496   0.00635   0.00801   0.00943   0.01049

  Beta  occ. eigenvalues --  -38.45271 -38.44461 -38.44380 -38.43466 -38.43406
  Beta  occ. eigenvalues --  -38.43018 -38.42839  -2.21180  -2.20636  -2.20456
  Beta  occ. eigenvalues --   -2.19529  -2.19506  -2.19200  -2.18988  -1.14891
  Beta  occ. eigenvalues --   -1.14857  -1.14777  -1.14475  -1.14400  -1.14322
  Beta  occ. eigenvalues --   -1.14264  -1.14211  -1.14085  -1.13264  -1.13199
  Beta  occ. eigenvalues --   -1.13167  -1.13134  -1.13114  -1.13054  -1.12947
  Beta  occ. eigenvalues --   -1.12808  -1.12792  -1.12704  -1.12591  -1.12563
  Beta  occ. eigenvalues --   -0.20409  -0.14201  -0.11467
  Beta virt. eigenvalues --   -0.07914  -0.06397  -0.04206  -0.03182  -0.03041
  Beta virt. eigenvalues --   -0.01977  -0.01739  -0.01669  -0.00543   0.00020
  Beta virt. eigenvalues --    0.00233   0.00515   0.00608   0.00971   0.01043

 Mulliken charges and spin densities:
               1          2
     1  Na  -0.080918   0.389118
     2  Na  -0.112462   0.133361
     3  Na  -0.201231  -0.156421
     4  Na  -0.005779   0.084635
     5  Na  -0.153036   0.536518
     6  Na   0.200119   0.008935
     7  Na   0.353306   0.003855
 Sum of Mulliken charges =   0.00000   1.00000

 Dipole moment (field-independent basis, Debye):
    X=             -0.7045    Y=             -0.0078    Z=              0.2785  Tot=              0.7576
 Quadrupole moment (field-independent basis, Debye-Ang):
   XX=            -49.5216   YY=            -76.3633   ZZ=            -68.5201
   XY=             -0.1125   XZ=             -0.0853   YZ=              0.2554

 Normal termination of Gaussian 16 at Mon Nov 13 19:20:14 2023.
