 Gaussian 16, Revision B.01,
 Gaussian 16:  ES64L-G16RevB.01 20-Dec-2017

 -------------------------
 #P B3LYP/6-311+g(d) force
 -------------------------

 ------------------------------
 Gaussian input prepared by ASE
 ------------------------------
 Symbolic Z-matrix:
 Charge =  0 Multiplicity = 2

                         Standard orientation:
 ---------------------------------------------------------------------
 Center     Atomic      Atomic             Coordinates (Angstroms)
 Number     Number       Type             X           Y           Z
 ---------------------------------------------------------------------
      1         11           0        0.430767   -1.372475    0.239029
      2         11           0        2.385873   -1.170464   -2.024762
      3         11           0        2.315128   -0.451095    2.383480
      4         11           0        2.025294    1.136965   -0.141343
      5         11           0       -0.583834    2.624014   -0.139989
      6         11           0       -2.002073    0.059014   -0.790965
      7         11           0       -4.571154   -0.825959    0.474550
 ---------------------------------------------------------------------

 SCF Done:  E(UB3LYP) =  -1136.09387029     A.U. after   26 cycles

 The electronic state is 2-A.
 Alpha  occ. eigenvalues --  -38.45220 -38.45023 -38.44865 -38.44646 -38.43748
 Alpha  occ. eigenvalues --  -38.43473 -38.42340  -2.21138  -2.20938  -2.20693
 Alpha  occ. eigenvalues --   -2.20648  -2.19841  -2.19444  -2.18244  -1.14862
 Alpha  occ. eigenvalues --   -1.14797  -1.14705  -1.14679  -1.14607  -1.14514
 Alpha  occ. eigenvalues --   -1.14387  -1.14355  -1.14351  -1.14299  -1.14290
 Alpha  occ. eigenvalues --   -1.14287  -1.13544  -1.13511  -1.13451  -1.13166
 Alpha  occ. eigenvalues --   -1.13094  -1.13059  -1.11922  -1.11907  -1.11868
 Alpha  occ. eigenvalues --   -0.19222  -0.13884  -0.12229  -0.11242
 Alpha virt. eigenvalues --   -0.07281  -0.04676  -0.03897  -0.03409  -0.02889
 Alpha virt. eigenvalues --   -0.02647  -0.02356  -0.01260  -0.00648  -0.00063
 Alpha virt. eigenvalues --    0.00019   0.00081   0.00293   0.00702   0.00877

  Beta  occ. eigenvalues --  -38.45112 -38.44934 -38.44878 -38.44622 -38.43722
  Beta  occ. eigenvalues --  -38.43469 -38.42346  -2.20941  -2.20777  -2.20671
  Beta  occ. eigenvalues --   -2.20659  -2.19802  -2.19437  -2.18257  -1.14735
  Beta  occ. eigenvalues --   -1.14656  -1.14583  -1.14567  -1.14492  -1.14404
  Beta  occ. eigenvalues --   -1.14369  -1.14347  -1.14314  -1.14306  -1.14303
  Beta  occ. eigenvalues --   -1.14229  -1.13497  -1.13445  -1.13427  -1.13161
  Beta  occ. eigenvalues --   -1.13092  -1.13051  -1.11931  -1.11916  -1.11871
  Beta  occ. eigenvalues --   -0.18373  -0.13743  -0.11092
  Beta virt. eigenvalues --   -0.08053  -0.06963  -0.04324  -0.03598  -0.03057
  Beta virt. eigenvalues --   -0.02609  -0.02114  -0.01705  -0.00746  -0.00563
  Beta virt. eigenvalues --    0.00003   0.00065   0.00253   0.00326   0.00781

 Mulliken charges and spin densities:
               1          2
     1  Na  -1.239858   0.272585
     2  Na   0.787653   0.304428
     3  Na   0.180656   0.279381
     4  Na  -0.022978   0.180735
     5  Na  -0.024048  -0.041101
     6  Na   0.615685   0.136219
     7  Na  -0.297112  -0.132248
 Sum of Mulliken charges =  -0.00000   1.00000

 Dipole moment (field-independent basis, Debye):
    X=              0.4529    Y=             -0.3219    Z=              0.4823  Tot=              0.7357
 Quadrupole moment (field-independent basis, Debye-Ang):
   XX=            -52.9701   YY=            -76.3944   ZZ=            -64.2619
   XY=              0.2840   XZ=             -3.0693   YZ=              0.9200

 Normal termination of Gaussian 16 at Mon Nov 13 15:11:01 2023.
