 Gaussian 16, Revision B.01,
 Gaussian 16:  ES64L-G16RevB.01 20-Dec-2017

 -------------------------
 #P B3LYP/6-311+g(d) force
 -------------------------

 ------------------------------
 Gaussian input prepared by ASE
 ------------------------------
 Symbolic Z-matrix:
 Charge =  0 Multiplicity = 2

                         Standard orientation:
 ---------------------------------------------------------------------
 Center     Atomic      Atomic             Coordinates (Angstroms)
 Number     Number       Type             X           Y           Z
 ---------------------------------------------------------------------
      1         11           0       -1.041571   -1.546566    0.064562
      2         11           0        2.107574    1.569565   -0.342116
      3         11           0       -3.448336    0.066793   -0.092952
      4         11           0       -0.959990    1.541879    0.100811
      5         11           0        0.672022    0.142012    1.896614
      6         11           0        0.587776   -0.260904   -1.791645
      7         11           0        2.082526   -1.512779    0.164727
 ---------------------------------------------------------------------

 SCF Done:  E(UB3LYP) =  -1136.08161374     A.U. after   23 cycles

 The electronic state is 2-A.
 Alpha  occ. eigenvalues --  -38.45277 -38.44593 -38.44533 -38.43631 -38.43446
 Alpha  occ. eigenvalues --  -38.42944 -38.42933  -2.21183  -2.20815  -2.20713
 Alpha  occ. eigenvalues --   -2.19752  -2.19531  -2.19121  -2.19099  -1.14908
 Alpha  occ. eigenvalues --   -1.14862  -1.14793  -1.14600  -1.14538  -1.14453
 Alpha  occ. eigenvalues --   -1.14451  -1.14432  -1.14288  -1.13422  -1.13404
 Alpha  occ. eigenvalues --   -1.13341  -1.13228  -1.13167  -1.13116  -1.12906
 Alpha  occ. eigenvalues --   -1.12802  -1.12767  -1.12758  -1.12710  -1.12628
 Alpha  occ. eigenvalues --   -0.21283  -0.14464  -0.12262  -0.11809
 Alpha virt. eigenvalues --   -0.06515  -0.04159  -0.03944  -0.03527  -0.02670
 Alpha virt. eigenvalues --   -0.02571  -0.01927  -0.00547  -0.00180   0.00194
 Alpha virt. eigenvalues --    0.00514   0.00649   0.00793   0.00941   0.01053

  Beta  occ. eigenvalues --  -38.45285 -38.44501 -38.44432 -38.43612 -38.43427
  Beta  occ. eigenvalues --  -38.42927 -38.42914  -2.21200  -2.20649  -2.20529
  Beta  occ. eigenvalues --   -2.19725  -2.19501  -2.19097  -2.19073  -1.14919
  Beta  occ. eigenvalues --   -1.14877  -1.14793  -1.14506  -1.14410  -1.14337
  Beta  occ. eigenvalues --   -1.14316  -1.14313  -1.14154  -1.13408  -1.13330
  Beta  occ. eigenvalues --   -1.13318  -1.13205  -1.13103  -1.13102  -1.12894
  Beta  occ. eigenvalues --   -1.12781  -1.12711  -1.12695  -1.12674  -1.12618
  Beta  occ. eigenvalues --   -0.20445  -0.14211  -0.11491
  Beta virt. eigenvalues --   -0.07991  -0.06375  -0.04186  -0.03223  -0.03068
  Beta virt. eigenvalues --   -0.01935  -0.01849  -0.01646  -0.00503   0.00008
  Beta virt. eigenvalues --    0.00239   0.00533   0.00627   0.00978   0.01046

 Mulliken charges and spin densities:
               1          2
     1  Na  -0.130026   0.150593
     2  Na   0.037446  -0.042076
     3  Na  -0.308719  -0.190160
     4  Na   0.095237   0.157147
     5  Na  -0.039588   0.420807
     6  Na  -0.028043   0.503328
     7  Na   0.373694   0.000361
 Sum of Mulliken charges =  -0.00000   1.00000

 Dipole moment (field-independent basis, Debye):
    X=             -0.7003    Y=              0.0655    Z=              0.0440  Tot=              0.7047
 Quadrupole moment (field-independent basis, Debye-Ang):
   XX=            -50.2704   YY=            -76.5459   ZZ=            -68.0598
   XY=              0.1060   XZ=              0.4053   YZ=             -1.2538

 Normal termination of Gaussian 16 at Mon Nov 13 18:11:37 2023.
