 Gaussian 16, Revision B.01,
 Gaussian 16:  ES64L-G16RevB.01 20-Dec-2017

 -------------------------
 #P B3LYP/6-311+g(d) force
 -------------------------

 ------------------------------
 Gaussian input prepared by ASE
 ------------------------------
 Symbolic Z-matrix:
 Charge =  0 Multiplicity = 2

                         Standard orientation:
 ---------------------------------------------------------------------
 Center     Atomic      Atomic             Coordinates (Angstroms)
 Number     Number       Type             X           Y           Z
 ---------------------------------------------------------------------
      1         11           0        1.057784    0.197268   -1.219096
      2         11           0       -0.686464    2.631266   -0.967180
      3         11           0        3.301699   -1.460063   -0.112102
      4         11           0        2.082945    0.710245    1.553200
      5         11           0       -0.866102    0.419609    1.057630
      6         11           0       -1.336378   -1.612665   -1.097725
      7         11           0       -3.553483   -0.885661    0.785274
 ---------------------------------------------------------------------

 SCF Done:  E(UB3LYP) =  -1136.10094099     A.U. after   23 cycles

 The electronic state is 2-A.
 Alpha  occ. eigenvalues --  -38.44329 -38.44207 -38.44076 -38.44055 -38.43452
 Alpha  occ. eigenvalues --  -38.43245 -38.43042  -2.20324  -2.20106  -2.20049
 Alpha  occ. eigenvalues --   -2.19947  -2.19632  -2.19450  -2.18952  -1.14076
 Alpha  occ. eigenvalues --   -1.14027  -1.13919  -1.13895  -1.13842  -1.13792
 Alpha  occ. eigenvalues --   -1.13724  -1.13662  -1.13645  -1.13600  -1.13577
 Alpha  occ. eigenvalues --   -1.13564  -1.13398  -1.13292  -1.13217  -1.13111
 Alpha  occ. eigenvalues --   -1.13080  -1.13048  -1.12611  -1.12605  -1.12552
 Alpha  occ. eigenvalues --   -0.19611  -0.14252  -0.11775  -0.11509
 Alpha virt. eigenvalues --   -0.06434  -0.04690  -0.04133  -0.03273  -0.02714
 Alpha virt. eigenvalues --   -0.02360  -0.01947  -0.01039  -0.00498   0.00114
 Alpha virt. eigenvalues --    0.00260   0.00429   0.00743   0.00818   0.00925

  Beta  occ. eigenvalues --  -38.44273 -38.44190 -38.44057 -38.44038 -38.43410
  Beta  occ. eigenvalues --  -38.43184 -38.43034  -2.20220  -2.20075  -2.19983
  Beta  occ. eigenvalues --   -2.19953  -2.19561  -2.19345  -2.18940  -1.14012
  Beta  occ. eigenvalues --   -1.13954  -1.13867  -1.13849  -1.13791  -1.13757
  Beta  occ. eigenvalues --   -1.13702  -1.13654  -1.13594  -1.13569  -1.13560
  Beta  occ. eigenvalues --   -1.13551  -1.13337  -1.13233  -1.13163  -1.13040
  Beta  occ. eigenvalues --   -1.12982  -1.12969  -1.12602  -1.12583  -1.12538
  Beta  occ. eigenvalues --   -0.18831  -0.14054  -0.11525
  Beta virt. eigenvalues --   -0.07504  -0.06113  -0.04420  -0.03774  -0.03035
  Beta virt. eigenvalues --   -0.02074  -0.01845  -0.01573  -0.00941  -0.00129
  Beta virt. eigenvalues --    0.00161   0.00313   0.00601   0.00854   0.00889

 Mulliken charges and spin densities:
               1          2
     1  Na  -0.040280   0.202030
     2  Na   0.086858   0.063878
     3  Na   0.048367   0.054768
     4  Na   0.228004   0.342151
     5  Na  -0.947974   0.134727
     6  Na   0.036416   0.184815
     7  Na   0.588608   0.017631
 Sum of Mulliken charges =  -0.00000   1.00000

 Dipole moment (field-independent basis, Debye):
    X=             -0.1875    Y=              0.1249    Z=             -0.0094  Tot=              0.2255
 Quadrupole moment (field-independent basis, Debye-Ang):
   XX=            -55.2081   YY=            -69.4468   ZZ=            -69.1160
   XY=             -2.4842   XZ=              0.2202   YZ=              0.9124

 Normal termination of Gaussian 16 at Mon Nov 13 17:32:34 2023.
