 Gaussian 16, Revision B.01,
 Gaussian 16:  ES64L-G16RevB.01 20-Dec-2017

 -------------------------
 #P B3LYP/6-311+g(d) force
 -------------------------

 ------------------------------
 Gaussian input prepared by ASE
 ------------------------------
 Symbolic Z-matrix:
 Charge =  0 Multiplicity = 2

                         Standard orientation:
 ---------------------------------------------------------------------
 Center     Atomic      Atomic             Coordinates (Angstroms)
 Number     Number       Type             X           Y           Z
 ---------------------------------------------------------------------
      1         11           0       -1.805105    1.414752   -1.433067
      2         11           0        0.808676    2.188750    2.113215
      3         11           0       -3.787164   -0.334546   -0.019778
      4         11           0       -1.474904   -2.133709    0.611289
      5         11           0        0.470838    0.078361    0.006741
      6         11           0        2.985965   -1.448682    0.594016
      7         11           0        2.801693    0.235075   -1.872417
 ---------------------------------------------------------------------

 SCF Done:  E(UB3LYP) =  -1136.09743517     A.U. after   26 cycles

 The electronic state is 2-A.
 Alpha  occ. eigenvalues --  -38.44933 -38.44839 -38.44481 -38.44000 -38.43970
 Alpha  occ. eigenvalues --  -38.43676 -38.43069  -2.20815  -2.20743  -2.20361
 Alpha  occ. eigenvalues --   -2.19892  -2.19799  -2.19565  -2.19260  -1.14517
 Alpha  occ. eigenvalues --   -1.14495  -1.14471  -1.14449  -1.14396  -1.14343
 Alpha  occ. eigenvalues --   -1.14067  -1.13997  -1.13982  -1.13622  -1.13539
 Alpha  occ. eigenvalues --   -1.13517  -1.13486  -1.13424  -1.13396  -1.13319
 Alpha  occ. eigenvalues --   -1.13198  -1.13176  -1.12965  -1.12913  -1.12843
 Alpha  occ. eigenvalues --   -0.18449  -0.14513  -0.11374  -0.11028
 Alpha virt. eigenvalues --   -0.06707  -0.05673  -0.03635  -0.03496  -0.02752
 Alpha virt. eigenvalues --   -0.02497  -0.02118  -0.01175  -0.00539  -0.00364
 Alpha virt. eigenvalues --    0.00051   0.00214   0.00565   0.00805   0.00849

  Beta  occ. eigenvalues --  -38.44936 -38.44779 -38.44491 -38.43973 -38.43891
  Beta  occ. eigenvalues --  -38.43648 -38.43044  -2.20823  -2.20630  -2.20383
  Beta  occ. eigenvalues --   -2.19841  -2.19654  -2.19513  -2.19226  -1.14509
  Beta  occ. eigenvalues --   -1.14499  -1.14456  -1.14409  -1.14322  -1.14265
  Beta  occ. eigenvalues --   -1.14079  -1.13997  -1.13979  -1.13592  -1.13504
  Beta  occ. eigenvalues --   -1.13451  -1.13416  -1.13325  -1.13298  -1.13280
  Beta  occ. eigenvalues --   -1.13164  -1.13136  -1.12905  -1.12852  -1.12825
  Beta  occ. eigenvalues --   -0.17821  -0.14255  -0.10767
  Beta virt. eigenvalues --   -0.07607  -0.06404  -0.05229  -0.03260  -0.03204
  Beta virt. eigenvalues --   -0.02420  -0.02369  -0.01492  -0.00888  -0.00337
  Beta virt. eigenvalues --   -0.00169   0.00158   0.00235   0.00685   0.00859

 Mulliken charges and spin densities:
               1          2
     1  Na   1.324380   0.251177
     2  Na   0.393971   0.227442
     3  Na   0.773159   0.075618
     4  Na   0.388268  -0.110721
     5  Na  -3.990719   0.613549
     6  Na   0.717392  -0.246987
     7  Na   0.393548   0.189922
 Sum of Mulliken charges =  -0.00000   1.00000

 Dipole moment (field-independent basis, Debye):
    X=              0.0842    Y=              0.2845    Z=              0.0203  Tot=              0.2974
 Quadrupole moment (field-independent basis, Debye-Ang):
   XX=            -51.7593   YY=            -75.4807   ZZ=            -66.3043
   XY=             -1.9013   XZ=              0.5054   YZ=             -1.1194

 Normal termination of Gaussian 16 at Mon Nov 13 17:25:51 2023.
