 Gaussian 16, Revision B.01,
 Gaussian 16:  ES64L-G16RevB.01 20-Dec-2017

 -------------------------
 #P B3LYP/6-311+g(d) force
 -------------------------

 ------------------------------
 Gaussian input prepared by ASE
 ------------------------------
 Symbolic Z-matrix:
 Charge =  0 Multiplicity = 2

                         Standard orientation:
 ---------------------------------------------------------------------
 Center     Atomic      Atomic             Coordinates (Angstroms)
 Number     Number       Type             X           Y           Z
 ---------------------------------------------------------------------
      1         11           0       -0.495132    0.042174   -1.830984
      2         11           0       -0.106432    2.511156   -0.155639
      3         11           0        2.450566   -0.410599   -1.471147
      4         11           0        2.436246   -0.217398    1.519341
      5         11           0       -0.513055    0.274544    1.811072
      6         11           0       -2.888805   -0.010718   -0.011068
      7         11           0       -0.883388   -2.189159    0.138425
 ---------------------------------------------------------------------

 SCF Done:  E(UB3LYP) =  -1136.10816078     A.U. after   40 cycles

 The electronic state is 2-A.
 Alpha  occ. eigenvalues --  -38.44512 -38.44473 -38.44260 -38.44225 -38.44092
 Alpha  occ. eigenvalues --  -38.42730 -38.42267  -2.20416  -2.20387  -2.20370
 Alpha  occ. eigenvalues --   -2.20347  -2.20096  -2.18733  -2.18199  -1.14252
 Alpha  occ. eigenvalues --   -1.14211  -1.14180  -1.14114  -1.14038  -1.14015
 Alpha  occ. eigenvalues --   -1.14000  -1.13965  -1.13960  -1.13951  -1.13947
 Alpha  occ. eigenvalues --   -1.13923  -1.13755  -1.13748  -1.13656  -1.12453
 Alpha  occ. eigenvalues --   -1.12403  -1.12310  -1.11913  -1.11889  -1.11777
 Alpha  occ. eigenvalues --   -0.20086  -0.13674  -0.12850  -0.11544
 Alpha virt. eigenvalues --   -0.05587  -0.04956  -0.04013  -0.03525  -0.03119
 Alpha virt. eigenvalues --   -0.03016  -0.01387  -0.00556  -0.00295   0.00320
 Alpha virt. eigenvalues --    0.00375   0.00452   0.00945   0.00987   0.00995

  Beta  occ. eigenvalues --  -38.44476 -38.44438 -38.44176 -38.44143 -38.44085
  Beta  occ. eigenvalues --  -38.42722 -38.42263  -2.20353  -2.20313  -2.20234
  Beta  occ. eigenvalues --   -2.20201  -2.20086  -2.18722  -2.18195  -1.14171
  Beta  occ. eigenvalues --   -1.14136  -1.14118  -1.14036  -1.13966  -1.13948
  Beta  occ. eigenvalues --   -1.13921  -1.13894  -1.13886  -1.13879  -1.13866
  Beta  occ. eigenvalues --   -1.13857  -1.13728  -1.13699  -1.13649  -1.12451
  Beta  occ. eigenvalues --   -1.12358  -1.12308  -1.11915  -1.11857  -1.11778
  Beta  occ. eigenvalues --   -0.19283  -0.13442  -0.11283
  Beta virt. eigenvalues --   -0.08631  -0.05531  -0.04147  -0.03585  -0.03185
  Beta virt. eigenvalues --   -0.02657  -0.02235  -0.01345  -0.00274  -0.00212
  Beta virt. eigenvalues --    0.00344   0.00564   0.00624   0.00922   0.01025

 Mulliken charges and spin densities:
               1          2
     1  Na   0.078020   0.517746
     2  Na  -0.632817  -0.085671
     3  Na  -0.022821   0.005001
     4  Na  -0.021745   0.004084
     5  Na   0.074176   0.526727
     6  Na   1.221464   0.064468
     7  Na  -0.696277  -0.032355
 Sum of Mulliken charges =  -0.00000   1.00000

 Dipole moment (field-independent basis, Debye):
    X=              0.2570    Y=             -0.0173    Z=             -0.0071  Tot=              0.2577
 Quadrupole moment (field-independent basis, Debye-Ang):
   XX=            -57.5249   YY=            -75.7546   ZZ=            -63.5498
   XY=             -0.4789   XZ=              0.0085   YZ=              1.2860

 Normal termination of Gaussian 16 at Mon Nov 13 17:30:08 2023.
