 Gaussian 16, Revision B.01,
 Gaussian 16:  ES64L-G16RevB.01 20-Dec-2017

 -------------------------
 #P B3LYP/6-311+g(d) force
 -------------------------

 ------------------------------
 Gaussian input prepared by ASE
 ------------------------------
 Symbolic Z-matrix:
 Charge =  0 Multiplicity = 2

                         Standard orientation:
 ---------------------------------------------------------------------
 Center     Atomic      Atomic             Coordinates (Angstroms)
 Number     Number       Type             X           Y           Z
 ---------------------------------------------------------------------
      1         11           0        1.567477    1.921789    0.017462
      2         11           0       -1.155737    1.522862   -0.016684
      3         11           0       -3.298030   -0.343127    0.005927
      4         11           0       -0.727780   -1.548405   -0.021504
      5         11           0        2.104745   -1.732506    0.011718
      6         11           0        0.734251    0.084019    1.710000
      7         11           0        0.775074    0.095368   -1.706919
 ---------------------------------------------------------------------

 SCF Done:  E(UB3LYP) =  -1136.06500405     A.U. after   22 cycles

 The electronic state is 2-A.
 Alpha  occ. eigenvalues --  -38.44854 -38.44575 -38.44569 -38.43988 -38.43697
 Alpha  occ. eigenvalues --  -38.43400 -38.43299  -2.20862  -2.20846  -2.20786
 Alpha  occ. eigenvalues --   -2.20168  -2.19789  -2.19663  -2.19533  -1.14819
 Alpha  occ. eigenvalues --   -1.14684  -1.14641  -1.14554  -1.14545  -1.14509
 Alpha  occ. eigenvalues --   -1.14479  -1.14457  -1.14380  -1.13861  -1.13715
 Alpha  occ. eigenvalues --   -1.13669  -1.13591  -1.13421  -1.13385  -1.13360
 Alpha  occ. eigenvalues --   -1.13288  -1.13217  -1.13146  -1.13144  -1.13075
 Alpha  occ. eigenvalues --   -0.21599  -0.14164  -0.12710  -0.12049
 Alpha virt. eigenvalues --   -0.06053  -0.04236  -0.03848  -0.03509  -0.03034
 Alpha virt. eigenvalues --   -0.02660  -0.01488  -0.00636  -0.00106   0.00239
 Alpha virt. eigenvalues --    0.00665   0.00688   0.01018   0.01063   0.01077

  Beta  occ. eigenvalues --  -38.44862 -38.44479 -38.44474 -38.43970 -38.43684
  Beta  occ. eigenvalues --  -38.43377 -38.43280  -2.20801  -2.20692  -2.20674
  Beta  occ. eigenvalues --   -2.20142  -2.19772  -2.19631  -2.19507  -1.14735
  Beta  occ. eigenvalues --   -1.14562  -1.14562  -1.14534  -1.14491  -1.14432
  Beta  occ. eigenvalues --   -1.14382  -1.14377  -1.14330  -1.13843  -1.13648
  Beta  occ. eigenvalues --   -1.13624  -1.13579  -1.13378  -1.13353  -1.13345
  Beta  occ. eigenvalues --   -1.13208  -1.13187  -1.13137  -1.13065  -1.13056
  Beta  occ. eigenvalues --   -0.20774  -0.13933  -0.12307
  Beta virt. eigenvalues --   -0.07789  -0.05913  -0.04253  -0.03824  -0.02700
  Beta virt. eigenvalues --   -0.02070  -0.01698  -0.01342  -0.00599   0.00091
  Beta virt. eigenvalues --    0.00287   0.00639   0.00707   0.01042   0.01059

 Mulliken charges and spin densities:
               1          2
     1  Na   0.517715  -0.115780
     2  Na   0.012283   0.227328
     3  Na  -0.570377  -0.249770
     4  Na   0.010696   0.315801
     5  Na   0.445958  -0.091804
     6  Na  -0.181873   0.473648
     7  Na  -0.234403   0.440576
 Sum of Mulliken charges =  -0.00000   1.00000

 Dipole moment (field-independent basis, Debye):
    X=             -0.3822    Y=             -0.1410    Z=              0.0072  Tot=              0.4075
 Quadrupole moment (field-independent basis, Debye-Ang):
   XX=            -54.1761   YY=            -71.9764   ZZ=            -69.9145
   XY=             -0.2063   XZ=             -0.0206   YZ=             -0.0100

 Normal termination of Gaussian 16 at Mon Nov 13 18:07:38 2023.
