 Gaussian 16, Revision B.01,
 Gaussian 16:  ES64L-G16RevB.01 20-Dec-2017

 -------------------------
 #P B3LYP/6-311+g(d) force
 -------------------------

 ------------------------------
 Gaussian input prepared by ASE
 ------------------------------
 Symbolic Z-matrix:
 Charge =  0 Multiplicity = 2

                         Standard orientation:
 ---------------------------------------------------------------------
 Center     Atomic      Atomic             Coordinates (Angstroms)
 Number     Number       Type             X           Y           Z
 ---------------------------------------------------------------------
      1         11           0       -1.299815   -0.639680    1.479734
      2         11           0        1.027321   -2.291066    0.552869
      3         11           0       -1.233014   -1.692740   -1.327028
      4         11           0       -2.998140    0.631062   -0.633249
      5         11           0       -0.773876    2.194807    0.637156
      6         11           0        2.002449    2.248727   -0.500759
      7         11           0        3.275074   -0.451110   -0.208723
 ---------------------------------------------------------------------

 SCF Done:  E(UB3LYP) =  -1136.10526363     A.U. after   21 cycles

 The electronic state is 2-A.
 Alpha  occ. eigenvalues --  -38.44810 -38.44533 -38.44102 -38.44100 -38.43806
 Alpha  occ. eigenvalues --  -38.43731 -38.43648  -2.20677  -2.20522  -2.20090
 Alpha  occ. eigenvalues --   -2.19970  -2.19901  -2.19697  -2.19617  -1.14394
 Alpha  occ. eigenvalues --   -1.14352  -1.14307  -1.14274  -1.14203  -1.14162
 Alpha  occ. eigenvalues --   -1.13857  -1.13744  -1.13710  -1.13703  -1.13621
 Alpha  occ. eigenvalues --   -1.13607  -1.13599  -1.13588  -1.13498  -1.13330
 Alpha  occ. eigenvalues --   -1.13316  -1.13304  -1.13256  -1.13245  -1.13233
 Alpha  occ. eigenvalues --   -0.19273  -0.14258  -0.13070  -0.10758
 Alpha virt. eigenvalues --   -0.06466  -0.05577  -0.04452  -0.03590  -0.03110
 Alpha virt. eigenvalues --   -0.01971  -0.01614  -0.00841  -0.00403  -0.00215
 Alpha virt. eigenvalues --   -0.00026   0.00316   0.00559   0.00790   0.00891

  Beta  occ. eigenvalues --  -38.44802 -38.44497 -38.44096 -38.44049 -38.43742
  Beta  occ. eigenvalues --  -38.43709 -38.43629  -2.20665  -2.20461  -2.19999
  Beta  occ. eigenvalues --   -2.19961  -2.19790  -2.19660  -2.19586  -1.14380
  Beta  occ. eigenvalues --   -1.14345  -1.14296  -1.14238  -1.14142  -1.14098
  Beta  occ. eigenvalues --   -1.13793  -1.13697  -1.13672  -1.13639  -1.13612
  Beta  occ. eigenvalues --   -1.13590  -1.13539  -1.13506  -1.13409  -1.13305
  Beta  occ. eigenvalues --   -1.13291  -1.13255  -1.13229  -1.13228  -1.13178
  Beta  occ. eigenvalues --   -0.18630  -0.13912  -0.12884
  Beta virt. eigenvalues --   -0.06808  -0.06423  -0.05402  -0.04331  -0.02878
  Beta virt. eigenvalues --   -0.02449  -0.01606  -0.01085  -0.00777  -0.00369
  Beta virt. eigenvalues --   -0.00168   0.00217   0.00408   0.00717   0.00815

 Mulliken charges and spin densities:
               1          2
     1  Na  -0.115374   0.161351
     2  Na   0.462985   0.280277
     3  Na  -0.491456   0.366117
     4  Na   0.805690   0.060794
     5  Na  -0.415888   0.162990
     6  Na  -0.014362   0.018567
     7  Na  -0.231596  -0.050096
 Sum of Mulliken charges =  -0.00000   1.00000

 Dipole moment (field-independent basis, Debye):
    X=              0.1444    Y=             -0.0065    Z=             -0.1674  Tot=              0.2212
 Quadrupole moment (field-independent basis, Debye-Ang):
   XX=            -58.6934   YY=            -67.6370   ZZ=            -73.2040
   XY=             -3.2487   XZ=             -0.5018   YZ=             -0.8065

 Normal termination of Gaussian 16 at Mon Nov 13 16:07:35 2023.
