 Gaussian 16, Revision B.01,
 Gaussian 16:  ES64L-G16RevB.01 20-Dec-2017

 -------------------------
 #P B3LYP/6-311+g(d) force
 -------------------------

 ------------------------------
 Gaussian input prepared by ASE
 ------------------------------
 Symbolic Z-matrix:
 Charge =  0 Multiplicity = 2

                         Standard orientation:
 ---------------------------------------------------------------------
 Center     Atomic      Atomic             Coordinates (Angstroms)
 Number     Number       Type             X           Y           Z
 ---------------------------------------------------------------------
      1         11           0        0.094004    0.054839   -1.737609
      2         11           0        0.093122    0.055361    1.737789
      3         11           0        2.135141    1.420331    0.000268
      4         11           0        2.045356   -1.405820    0.000077
      5         11           0       -0.716042   -1.974790    0.000116
      6         11           0       -2.684626   -0.120745   -0.000144
      7         11           0       -0.966956    1.970824   -0.000497
 ---------------------------------------------------------------------

 SCF Done:  E(UB3LYP) =  -1136.07809279     A.U. after   19 cycles

 The electronic state is 2-A.
 Alpha  occ. eigenvalues --  -38.44367 -38.44090 -38.44090 -38.43689 -38.43605
 Alpha  occ. eigenvalues --  -38.43482 -38.43468  -2.20464  -2.20357  -2.20351
 Alpha  occ. eigenvalues --   -2.19825  -2.19697  -2.19678  -2.19635  -1.14370
 Alpha  occ. eigenvalues --   -1.14289  -1.14191  -1.14112  -1.14106  -1.14088
 Alpha  occ. eigenvalues --   -1.14020  -1.13990  -1.13954  -1.13655  -1.13578
 Alpha  occ. eigenvalues --   -1.13421  -1.13348  -1.13309  -1.13291  -1.13268
 Alpha  occ. eigenvalues --   -1.13252  -1.13232  -1.13231  -1.13184  -1.13129
 Alpha  occ. eigenvalues --   -0.21749  -0.14188  -0.12786  -0.12194
 Alpha virt. eigenvalues --   -0.05415  -0.04400  -0.03894  -0.03816  -0.03026
 Alpha virt. eigenvalues --   -0.02695  -0.01238  -0.00485  -0.00063   0.00332
 Alpha virt. eigenvalues --    0.00728   0.00754   0.01015   0.01141   0.01189

  Beta  occ. eigenvalues --  -38.44359 -38.43995 -38.43995 -38.43676 -38.43594
  Beta  occ. eigenvalues --  -38.43463 -38.43452  -2.20455  -2.20187  -2.20180
  Beta  occ. eigenvalues --   -2.19808  -2.19675  -2.19662  -2.19613  -1.14343
  Beta  occ. eigenvalues --   -1.14290  -1.14119  -1.14022  -1.14007  -1.13966
  Beta  occ. eigenvalues --   -1.13929  -1.13889  -1.13839  -1.13646  -1.13551
  Beta  occ. eigenvalues --   -1.13353  -1.13338  -1.13274  -1.13249  -1.13238
  Beta  occ. eigenvalues --   -1.13225  -1.13180  -1.13179  -1.13148  -1.13124
  Beta  occ. eigenvalues --   -0.20922  -0.13798  -0.12415
  Beta virt. eigenvalues --   -0.07989  -0.05451  -0.04388  -0.03850  -0.02814
  Beta virt. eigenvalues --   -0.02105  -0.01636  -0.01153  -0.00448   0.00076
  Beta virt. eigenvalues --    0.00361   0.00712   0.00733   0.01041   0.01141

 Mulliken charges and spin densities:
               1          2
     1  Na  -0.320678   0.463014
     2  Na  -0.320704   0.463182
     3  Na   0.114737  -0.012214
     4  Na   0.131062   0.009135
     5  Na   0.295586   0.090853
     6  Na  -0.144878  -0.059778
     7  Na   0.244875   0.045808
 Sum of Mulliken charges =  -0.00000   1.00000

 Dipole moment (field-independent basis, Debye):
    X=              0.0759    Y=              0.1657    Z=              0.0003  Tot=              0.1823
 Quadrupole moment (field-independent basis, Debye-Ang):
   XX=            -58.0110   YY=            -70.3498   ZZ=            -69.2735
   XY=              0.2838   XZ=              0.0017   YZ=             -0.0007

 Normal termination of Gaussian 16 at Mon Nov 13 18:25:10 2023.
