 Gaussian 16, Revision B.01,
 Gaussian 16:  ES64L-G16RevB.01 20-Dec-2017

 -------------------------
 #P B3LYP/6-311+g(d) force
 -------------------------

 ------------------------------
 Gaussian input prepared by ASE
 ------------------------------
 Symbolic Z-matrix:
 Charge =  0 Multiplicity = 2

                         Standard orientation:
 ---------------------------------------------------------------------
 Center     Atomic      Atomic             Coordinates (Angstroms)
 Number     Number       Type             X           Y           Z
 ---------------------------------------------------------------------
      1         11           0        2.095609    2.826376    0.387864
      2         11           0        0.493002    0.457587   -0.530659
      3         11           0        2.753976   -1.511456   -0.696340
      4         11           0        0.317973   -2.153696    0.931188
      5         11           0       -1.523653    0.094587    1.660740
      6         11           0       -1.878525   -1.342243   -0.941582
      7         11           0       -2.258382    1.628846   -0.811210
 ---------------------------------------------------------------------

 SCF Done:  E(UB3LYP) =  -1136.10097290     A.U. after   24 cycles

 The electronic state is 2-A.
 Alpha  occ. eigenvalues --  -38.44389 -38.44116 -38.44106 -38.43896 -38.43717
 Alpha  occ. eigenvalues --  -38.43105 -38.42463  -2.20270  -2.20092  -2.19977
 Alpha  occ. eigenvalues --   -2.19906  -2.19814  -2.19184  -2.18747  -1.13997
 Alpha  occ. eigenvalues --   -1.13938  -1.13926  -1.13869  -1.13775  -1.13749
 Alpha  occ. eigenvalues --   -1.13726  -1.13631  -1.13612  -1.13556  -1.13547
 Alpha  occ. eigenvalues --   -1.13529  -1.13523  -1.13416  -1.13360  -1.12913
 Alpha  occ. eigenvalues --   -1.12806  -1.12795  -1.12432  -1.12401  -1.12364
 Alpha  occ. eigenvalues --   -0.19947  -0.13548  -0.12366  -0.11020
 Alpha virt. eigenvalues --   -0.05898  -0.05251  -0.04021  -0.03144  -0.02597
 Alpha virt. eigenvalues --   -0.02058  -0.01467  -0.01169  -0.00334   0.00174
 Alpha virt. eigenvalues --    0.00288   0.00370   0.00624   0.00829   0.00960

  Beta  occ. eigenvalues --  -38.44374 -38.44115 -38.44078 -38.43859 -38.43643
  Beta  occ. eigenvalues --  -38.43074 -38.42435  -2.20244  -2.20044  -2.19914
  Beta  occ. eigenvalues --   -2.19905  -2.19681  -2.19135  -2.18705  -1.13981
  Beta  occ. eigenvalues --   -1.13917  -1.13892  -1.13848  -1.13712  -1.13707
  Beta  occ. eigenvalues --   -1.13687  -1.13615  -1.13556  -1.13551  -1.13529
  Beta  occ. eigenvalues --   -1.13494  -1.13435  -1.13314  -1.13271  -1.12886
  Beta  occ. eigenvalues --   -1.12779  -1.12706  -1.12411  -1.12348  -1.12298
  Beta  occ. eigenvalues --   -0.19145  -0.13291  -0.12147
  Beta virt. eigenvalues --   -0.06926  -0.05752  -0.05036  -0.03959  -0.02579
  Beta virt. eigenvalues --   -0.02036  -0.01468  -0.01197  -0.00875  -0.00053
  Beta virt. eigenvalues --    0.00208   0.00293   0.00423   0.00688   0.00876

 Mulliken charges and spin densities:
               1          2
     1  Na   0.040787  -0.041327
     2  Na  -2.047635   0.452836
     3  Na   0.965265  -0.026349
     4  Na  -0.119810   0.205514
     5  Na  -0.271733   0.337805
     6  Na   1.319447  -0.058858
     7  Na   0.113678   0.130380
 Sum of Mulliken charges =  -0.00000   1.00000

 Dipole moment (field-independent basis, Debye):
    X=              0.0960    Y=              0.1272    Z=              0.0298  Tot=              0.1621
 Quadrupole moment (field-independent basis, Debye-Ang):
   XX=            -57.1907   YY=            -62.7613   ZZ=            -71.2807
   XY=             -2.1336   XZ=              0.5994   YZ=              1.6905

 Normal termination of Gaussian 16 at Mon Nov 13 20:07:36 2023.
