 Gaussian 16, Revision B.01,
 Gaussian 16:  ES64L-G16RevB.01 20-Dec-2017

 -------------------------
 #P B3LYP/6-311+g(d) force
 -------------------------

 ------------------------------
 Gaussian input prepared by ASE
 ------------------------------
 Symbolic Z-matrix:
 Charge =  0 Multiplicity = 2

                         Standard orientation:
 ---------------------------------------------------------------------
 Center     Atomic      Atomic             Coordinates (Angstroms)
 Number     Number       Type             X           Y           Z
 ---------------------------------------------------------------------
      1         11           0        0.700734    0.393206    1.346611
      2         11           0       -1.896406    1.103425    0.885654
      3         11           0        3.118379   -0.168193   -0.046634
      4         11           0        0.594743   -0.594867   -1.274551
      5         11           0       -2.101126   -0.781998   -0.998367
      6         11           0       -0.484759   -1.896082    0.839254
      7         11           0        0.068435    1.944508   -0.751968
 ---------------------------------------------------------------------

 SCF Done:  E(UB3LYP) =  -1136.04544801     A.U. after   20 cycles

 The electronic state is 2-A.
 Alpha  occ. eigenvalues --  -38.44713 -38.44590 -38.44483 -38.44344 -38.44214
 Alpha  occ. eigenvalues --  -38.43772 -38.43630  -2.20940  -2.20821  -2.20754
 Alpha  occ. eigenvalues --   -2.20665  -2.20426  -2.19977  -2.19829  -1.15042
 Alpha  occ. eigenvalues --   -1.14892  -1.14806  -1.14766  -1.14672  -1.14577
 Alpha  occ. eigenvalues --   -1.14443  -1.14390  -1.14351  -1.14278  -1.14227
 Alpha  occ. eigenvalues --   -1.14144  -1.14094  -1.13971  -1.13889  -1.13601
 Alpha  occ. eigenvalues --   -1.13547  -1.13472  -1.13440  -1.13386  -1.13290
 Alpha  occ. eigenvalues --   -0.21963  -0.14217  -0.12615  -0.12302
 Alpha virt. eigenvalues --   -0.05823  -0.03865  -0.03789  -0.03657  -0.02822
 Alpha virt. eigenvalues --   -0.02729  -0.01678  -0.00262  -0.00242   0.00307
 Alpha virt. eigenvalues --    0.00655   0.00919   0.01009   0.01116   0.01208

  Beta  occ. eigenvalues --  -38.44711 -38.44555 -38.44408 -38.44275 -38.44182
  Beta  occ. eigenvalues --  -38.43740 -38.43602  -2.20815  -2.20744  -2.20672
  Beta  occ. eigenvalues --   -2.20641  -2.20375  -2.19924  -2.19785  -1.14982
  Beta  occ. eigenvalues --   -1.14820  -1.14730  -1.14665  -1.14627  -1.14491
  Beta  occ. eigenvalues --   -1.14389  -1.14342  -1.14308  -1.14226  -1.14206
  Beta  occ. eigenvalues --   -1.14102  -1.14022  -1.13893  -1.13853  -1.13568
  Beta  occ. eigenvalues --   -1.13471  -1.13430  -1.13407  -1.13304  -1.13261
  Beta  occ. eigenvalues --   -0.21097  -0.13971  -0.12053
  Beta virt. eigenvalues --   -0.08055  -0.05792  -0.03764  -0.03541  -0.03061
  Beta virt. eigenvalues --   -0.02060  -0.01648  -0.01512  -0.00245  -0.00017
  Beta virt. eigenvalues --    0.00330   0.00684   0.00972   0.01047   0.01184

 Mulliken charges and spin densities:
               1          2
     1  Na  -0.921500   0.168970
     2  Na   0.370231   0.002360
     3  Na   0.201264  -0.005207
     4  Na  -0.877542   0.235295
     5  Na   0.452864   0.084101
     6  Na   0.441147   0.257665
     7  Na   0.333536   0.256815
 Sum of Mulliken charges =  -0.00000   1.00000

 Dipole moment (field-independent basis, Debye):
    X=              0.5112    Y=             -0.0009    Z=             -0.0649  Tot=              0.5153
 Quadrupole moment (field-independent basis, Debye-Ang):
   XX=            -54.0340   YY=            -74.3257   ZZ=            -67.4209
   XY=             -0.2930   XZ=              0.0543   YZ=             -0.8311

 Normal termination of Gaussian 16 at Mon Nov 13 20:23:42 2023.
