 Gaussian 16, Revision B.01,
 Gaussian 16:  ES64L-G16RevB.01 20-Dec-2017

 -------------------------
 #P B3LYP/6-311+g(d) force
 -------------------------

 ------------------------------
 Gaussian input prepared by ASE
 ------------------------------
 Symbolic Z-matrix:
 Charge =  0 Multiplicity = 2

                         Standard orientation:
 ---------------------------------------------------------------------
 Center     Atomic      Atomic             Coordinates (Angstroms)
 Number     Number       Type             X           Y           Z
 ---------------------------------------------------------------------
      1         11           0       -0.165237   -0.288220    1.360709
      2         11           0       -0.623821   -0.756661   -1.317804
      3         11           0       -2.889117   -0.953892    0.524128
      4         11           0       -1.757690    1.660044   -0.129761
      5         11           0        1.030687    1.429218   -0.982146
      6         11           0        1.921512   -1.561182   -0.618964
      7         11           0        2.483665    0.470693    1.163838
 ---------------------------------------------------------------------

 SCF Done:  E(UB3LYP) =  -1136.06661447     A.U. after   28 cycles

 The electronic state is 2-A.
 Alpha  occ. eigenvalues --  -38.45202 -38.44483 -38.44153 -38.44035 -38.43825
 Alpha  occ. eigenvalues --  -38.43346 -38.43059  -2.21310  -2.20514  -2.20481
 Alpha  occ. eigenvalues --   -2.20363  -2.19933  -2.19467  -2.19280  -1.15142
 Alpha  occ. eigenvalues --   -1.15002  -1.14920  -1.14538  -1.14423  -1.14222
 Alpha  occ. eigenvalues --   -1.14176  -1.14128  -1.14048  -1.13953  -1.13929
 Alpha  occ. eigenvalues --   -1.13854  -1.13582  -1.13562  -1.13483  -1.13226
 Alpha  occ. eigenvalues --   -1.13112  -1.13069  -1.12951  -1.12922  -1.12789
 Alpha  occ. eigenvalues --   -0.21464  -0.15026  -0.12294  -0.11611
 Alpha virt. eigenvalues --   -0.06176  -0.04487  -0.04417  -0.03314  -0.02373
 Alpha virt. eigenvalues --   -0.02332  -0.01832  -0.00530  -0.00267   0.00279
 Alpha virt. eigenvalues --    0.00559   0.00790   0.00816   0.00986   0.01016

  Beta  occ. eigenvalues --  -38.45156 -38.44472 -38.44077 -38.43975 -38.43798
  Beta  occ. eigenvalues --  -38.43338 -38.43023  -2.21227  -2.20481  -2.20366
  Beta  occ. eigenvalues --   -2.20256  -2.19891  -2.19456  -2.19223  -1.15088
  Beta  occ. eigenvalues --   -1.14923  -1.14866  -1.14469  -1.14354  -1.14170
  Beta  occ. eigenvalues --   -1.14128  -1.14081  -1.13979  -1.13884  -1.13862
  Beta  occ. eigenvalues --   -1.13757  -1.13561  -1.13497  -1.13439  -1.13210
  Beta  occ. eigenvalues --   -1.13096  -1.13040  -1.12915  -1.12847  -1.12739
  Beta  occ. eigenvalues --   -0.20666  -0.14723  -0.11351
  Beta virt. eigenvalues --   -0.07953  -0.06103  -0.04405  -0.03634  -0.02969
  Beta virt. eigenvalues --   -0.01811  -0.01610  -0.01393  -0.00495  -0.00018
  Beta virt. eigenvalues --    0.00319   0.00618   0.00791   0.00951   0.01014

 Mulliken charges and spin densities:
               1          2
     1  Na  -0.802867   0.221076
     2  Na  -0.248173   0.264762
     3  Na   1.410521   0.165243
     4  Na  -0.722543  -0.002491
     5  Na   0.251469   0.121912
     6  Na  -0.544046   0.107428
     7  Na   0.655639   0.122071
 Sum of Mulliken charges =  -0.00000   1.00000

 Dipole moment (field-independent basis, Debye):
    X=             -0.1932    Y=              0.0404    Z=              0.3017  Tot=              0.3605
 Quadrupole moment (field-independent basis, Debye-Ang):
   XX=            -51.3339   YY=            -75.5278   ZZ=            -68.4122
   XY=              0.2583   XZ=             -0.1070   YZ=              1.3501

 Normal termination of Gaussian 16 at Mon Nov 13 18:25:38 2023.
