 Gaussian 16, Revision B.01,
 Gaussian 16:  ES64L-G16RevB.01 20-Dec-2017

 -------------------------
 #P B3LYP/6-311+g(d) force
 -------------------------

 ------------------------------
 Gaussian input prepared by ASE
 ------------------------------
 Symbolic Z-matrix:
 Charge =  0 Multiplicity = 2

                         Standard orientation:
 ---------------------------------------------------------------------
 Center     Atomic      Atomic             Coordinates (Angstroms)
 Number     Number       Type             X           Y           Z
 ---------------------------------------------------------------------
      1         11           0        0.006326    0.007469   -0.626640
      2         11           0       -2.868764   -0.831872   -0.506645
      3         11           0       -0.764252   -2.508204    0.817844
      4         11           0        2.081616   -2.068251   -0.022587
      5         11           0        2.894917    0.792024   -0.413419
      6         11           0        0.763187    2.589397    0.697869
      7         11           0       -2.113030    2.019436    0.053579
 ---------------------------------------------------------------------

 SCF Done:  E(UB3LYP) =  -1136.10017070     A.U. after   27 cycles

 The electronic state is 2-A.
 Alpha  occ. eigenvalues --  -38.44277 -38.44261 -38.43997 -38.43969 -38.43492
 Alpha  occ. eigenvalues --  -38.43488 -38.43462  -2.20252  -2.20238  -2.19984
 Alpha  occ. eigenvalues --   -2.19959  -2.19744  -2.19480  -2.19479  -1.14051
 Alpha  occ. eigenvalues --   -1.13988  -1.13982  -1.13965  -1.13875  -1.13863
 Alpha  occ. eigenvalues --   -1.13776  -1.13683  -1.13622  -1.13605  -1.13590
 Alpha  occ. eigenvalues --   -1.13566  -1.13448  -1.13423  -1.13329  -1.13138
 Alpha  occ. eigenvalues --   -1.13120  -1.13107  -1.13086  -1.13072  -1.13071
 Alpha  occ. eigenvalues --   -0.19529  -0.14418  -0.13863  -0.09611
 Alpha virt. eigenvalues --   -0.06144  -0.05831  -0.04839  -0.03046  -0.02902
 Alpha virt. eigenvalues --   -0.01877  -0.01377  -0.00726  -0.00605  -0.00351
 Alpha virt. eigenvalues --    0.00123   0.00395   0.00736   0.00865   0.00919

  Beta  occ. eigenvalues --  -38.44259 -38.44244 -38.43966 -38.43935 -38.43452
  Beta  occ. eigenvalues --  -38.43450 -38.43444  -2.20230  -2.20216  -2.19930
  Beta  occ. eigenvalues --   -2.19900  -2.19725  -2.19408  -2.19399  -1.14041
  Beta  occ. eigenvalues --   -1.13976  -1.13931  -1.13918  -1.13840  -1.13827
  Beta  occ. eigenvalues --   -1.13748  -1.13644  -1.13567  -1.13552  -1.13544
  Beta  occ. eigenvalues --   -1.13528  -1.13444  -1.13363  -1.13313  -1.13090
  Beta  occ. eigenvalues --   -1.13065  -1.13051  -1.13040  -1.13017  -1.13012
  Beta  occ. eigenvalues --   -0.19070  -0.13933  -0.13313
  Beta virt. eigenvalues --   -0.06170  -0.06137  -0.05586  -0.04586  -0.02406
  Beta virt. eigenvalues --   -0.02174  -0.01710  -0.01306  -0.00618  -0.00271
  Beta virt. eigenvalues --   -0.00236   0.00388   0.00539   0.00745   0.00940

 Mulliken charges and spin densities:
               1          2
     1  Na  -4.071773   0.494076
     2  Na   1.733738   0.080989
     3  Na   0.094741   0.055817
     4  Na   0.164524   0.072361
     5  Na   1.839170   0.151900
     6  Na   0.093263   0.066157
     7  Na   0.146337   0.078700
 Sum of Mulliken charges =  -0.00000   1.00000

 Dipole moment (field-independent basis, Debye):
    X=              0.0062    Y=              0.0036    Z=              0.3482  Tot=              0.3483
 Quadrupole moment (field-independent basis, Debye-Ang):
   XX=            -57.1261   YY=            -64.3505   ZZ=            -75.2797
   XY=              0.1887   XZ=             -0.0941   YZ=              0.2970

 Normal termination of Gaussian 16 at Mon Nov 13 16:09:08 2023.
