 Gaussian 16, Revision B.01,
 Gaussian 16:  ES64L-G16RevB.01 20-Dec-2017

 -------------------------
 #P B3LYP/6-311+g(d) force
 -------------------------

 ------------------------------
 Gaussian input prepared by ASE
 ------------------------------
 Symbolic Z-matrix:
 Charge =  0 Multiplicity = 2

                         Standard orientation:
 ---------------------------------------------------------------------
 Center     Atomic      Atomic             Coordinates (Angstroms)
 Number     Number       Type             X           Y           Z
 ---------------------------------------------------------------------
      1         11           0        1.114878    0.734332   -0.864098
      2         11           0        0.803458    1.992284    1.845403
      3         11           0        3.537442   -1.023264   -0.668710
      4         11           0        0.916690   -1.958958    0.439021
      5         11           0       -1.566315    1.894558   -1.552968
      6         11           0       -1.265082    0.070263    0.812371
      7         11           0       -3.541070   -1.709215   -0.011019
 ---------------------------------------------------------------------

 SCF Done:  E(UB3LYP) =  -1136.10263420     A.U. after   21 cycles

 The electronic state is 2-A.
 Alpha  occ. eigenvalues --  -38.44294 -38.44272 -38.44116 -38.44024 -38.43955
 Alpha  occ. eigenvalues --  -38.43253 -38.42785  -2.20193  -2.20186  -2.20073
 Alpha  occ. eigenvalues --   -2.19879  -2.19824  -2.19434  -2.18974  -1.13963
 Alpha  occ. eigenvalues --   -1.13922  -1.13885  -1.13851  -1.13841  -1.13809
 Alpha  occ. eigenvalues --   -1.13754  -1.13699  -1.13622  -1.13611  -1.13556
 Alpha  occ. eigenvalues --   -1.13535  -1.13467  -1.13458  -1.13453  -1.13180
 Alpha  occ. eigenvalues --   -1.13073  -1.13002  -1.12679  -1.12631  -1.12543
 Alpha  occ. eigenvalues --   -0.19361  -0.13673  -0.11964  -0.11399
 Alpha virt. eigenvalues --   -0.06348  -0.04943  -0.03850  -0.03245  -0.02732
 Alpha virt. eigenvalues --   -0.02379  -0.01893  -0.01154  -0.00595   0.00147
 Alpha virt. eigenvalues --    0.00184   0.00304   0.00704   0.00838   0.00921

  Beta  occ. eigenvalues --  -38.44282 -38.44201 -38.44103 -38.44033 -38.43888
  Beta  occ. eigenvalues --  -38.43222 -38.42750  -2.20170  -2.20057  -2.20052
  Beta  occ. eigenvalues --   -2.19840  -2.19758  -2.19386  -2.18918  -1.13945
  Beta  occ. eigenvalues --   -1.13873  -1.13842  -1.13827  -1.13789  -1.13745
  Beta  occ. eigenvalues --   -1.13666  -1.13660  -1.13607  -1.13559  -1.13524
  Beta  occ. eigenvalues --   -1.13476  -1.13467  -1.13462  -1.13367  -1.13148
  Beta  occ. eigenvalues --   -1.12990  -1.12972  -1.12646  -1.12543  -1.12500
  Beta  occ. eigenvalues --   -0.18584  -0.13416  -0.11769
  Beta virt. eigenvalues --   -0.07375  -0.06127  -0.04732  -0.03529  -0.02841
  Beta virt. eigenvalues --   -0.02210  -0.01928  -0.01596  -0.00809  -0.00248
  Beta virt. eigenvalues --    0.00181   0.00231   0.00390   0.00787   0.00911

 Mulliken charges and spin densities:
               1          2
     1  Na  -0.894074   0.285262
     2  Na   0.241845   0.241383
     3  Na   0.730873  -0.101379
     4  Na  -0.495378   0.148242
     5  Na   0.013184   0.212097
     6  Na   0.243365   0.282822
     7  Na   0.160184  -0.068428
 Sum of Mulliken charges =  -0.00000   1.00000

 Dipole moment (field-independent basis, Debye):
    X=              0.5125    Y=              0.3177    Z=             -0.0191  Tot=              0.6033
 Quadrupole moment (field-independent basis, Debye-Ang):
   XX=            -53.5118   YY=            -67.9461   ZZ=            -69.7324
   XY=             -0.2005   XZ=              2.8316   YZ=              0.6122

 Normal termination of Gaussian 16 at Mon Nov 13 18:35:40 2023.
