 Gaussian 16, Revision B.01,
 Gaussian 16:  ES64L-G16RevB.01 20-Dec-2017

 -------------------------
 #P B3LYP/6-311+g(d) force
 -------------------------

 ------------------------------
 Gaussian input prepared by ASE
 ------------------------------
 Symbolic Z-matrix:
 Charge =  0 Multiplicity = 2

                         Standard orientation:
 ---------------------------------------------------------------------
 Center     Atomic      Atomic             Coordinates (Angstroms)
 Number     Number       Type             X           Y           Z
 ---------------------------------------------------------------------
      1         11           0       -0.219869   -0.094113   -1.525752
      2         11           0       -1.322240    1.907613    0.111257
      3         11           0        0.240035    0.201317    1.724967
      4         11           0        2.338990   -0.872112   -0.103096
      5         11           0        1.534220    1.709638   -0.304691
      6         11           0       -0.037082   -2.145714    0.141289
      7         11           0       -2.534053   -0.706630   -0.043974
 ---------------------------------------------------------------------

 SCF Done:  E(UB3LYP) =  -1136.06577372     A.U. after   21 cycles

 The electronic state is 2-A.
 Alpha  occ. eigenvalues --  -38.44168 -38.44077 -38.44044 -38.43931 -38.43807
 Alpha  occ. eigenvalues --  -38.43729 -38.43571  -2.20589  -2.20332  -2.20249
 Alpha  occ. eigenvalues --   -2.20020  -2.19999  -2.19940  -2.19733  -1.14557
 Alpha  occ. eigenvalues --   -1.14453  -1.14371  -1.14185  -1.14166  -1.14111
 Alpha  occ. eigenvalues --   -1.14012  -1.13935  -1.13783  -1.13756  -1.13716
 Alpha  occ. eigenvalues --   -1.13648  -1.13611  -1.13557  -1.13509  -1.13491
 Alpha  occ. eigenvalues --   -1.13481  -1.13382  -1.13352  -1.13326  -1.13238
 Alpha  occ. eigenvalues --   -0.21992  -0.14070  -0.13180  -0.12141
 Alpha virt. eigenvalues --   -0.05235  -0.04391  -0.04160  -0.03599  -0.03139
 Alpha virt. eigenvalues --   -0.02546  -0.01081  -0.00525  -0.00028   0.00346
 Alpha virt. eigenvalues --    0.00762   0.00848   0.01033   0.01166   0.01205

  Beta  occ. eigenvalues --  -38.44082 -38.44063 -38.43949 -38.43922 -38.43787
  Beta  occ. eigenvalues --  -38.43710 -38.43556  -2.20437  -2.20236  -2.20155
  Beta  occ. eigenvalues --   -2.20008  -2.19971  -2.19915  -2.19713  -1.14485
  Beta  occ. eigenvalues --   -1.14367  -1.14285  -1.14164  -1.14084  -1.14014
  Beta  occ. eigenvalues --   -1.13921  -1.13861  -1.13752  -1.13698  -1.13690
  Beta  occ. eigenvalues --   -1.13609  -1.13563  -1.13497  -1.13473  -1.13464
  Beta  occ. eigenvalues --   -1.13396  -1.13374  -1.13335  -1.13251  -1.13232
  Beta  occ. eigenvalues --   -0.21173  -0.13686  -0.12804
  Beta virt. eigenvalues --   -0.07890  -0.05261  -0.04371  -0.04132  -0.02635
  Beta virt. eigenvalues --   -0.02209  -0.01448  -0.01005  -0.00482   0.00110
  Beta virt. eigenvalues --    0.00382   0.00742   0.00824   0.01061   0.01174

 Mulliken charges and spin densities:
               1          2
     1  Na  -0.685998   0.304130
     2  Na   0.336317   0.061985
     3  Na  -0.473618   0.479233
     4  Na   0.101488  -0.001613
     5  Na   0.287223   0.048109
     6  Na   0.388253   0.113982
     7  Na   0.046335  -0.005825
 Sum of Mulliken charges =  -0.00000   1.00000

 Dipole moment (field-independent basis, Debye):
    X=             -0.1631    Y=              0.0439    Z=              0.2554  Tot=              0.3062
 Quadrupole moment (field-independent basis, Debye-Ang):
   XX=            -59.5511   YY=            -68.1141   ZZ=            -70.1191
   XY=              0.0442   XZ=             -0.8152   YZ=             -0.4617

 Normal termination of Gaussian 16 at Mon Nov 13 19:36:31 2023.
