 Gaussian 16, Revision B.01,
 Gaussian 16:  ES64L-G16RevB.01 20-Dec-2017

 -------------------------
 #P B3LYP/6-311+g(d) force
 -------------------------

 ------------------------------
 Gaussian input prepared by ASE
 ------------------------------
 Symbolic Z-matrix:
 Charge =  0 Multiplicity = 2

                         Standard orientation:
 ---------------------------------------------------------------------
 Center     Atomic      Atomic             Coordinates (Angstroms)
 Number     Number       Type             X           Y           Z
 ---------------------------------------------------------------------
      1         11           0       -0.002323   -1.895634    0.000709
      2         11           0        0.001259    0.170616    1.608529
      3         11           0        1.632040    1.663207    0.000228
      4         11           0        2.484837   -0.888713   -0.001184
      5         11           0       -0.000081    0.170177   -1.607956
      6         11           0       -2.487818   -0.883372    0.000136
      7         11           0       -1.627914    1.663718   -0.000464
 ---------------------------------------------------------------------

 SCF Done:  E(UB3LYP) =  -1136.04909678     A.U. after   20 cycles

 The electronic state is 2-A.
 Alpha  occ. eigenvalues --  -38.44405 -38.44400 -38.44366 -38.44366 -38.43994
 Alpha  occ. eigenvalues --  -38.43907 -38.43903  -2.20774  -2.20743  -2.20551
 Alpha  occ. eigenvalues --   -2.20544  -2.20299  -2.20089  -2.20084  -1.14911
 Alpha  occ. eigenvalues --   -1.14683  -1.14643  -1.14638  -1.14517  -1.14443
 Alpha  occ. eigenvalues --   -1.14436  -1.14383  -1.14249  -1.14247  -1.14108
 Alpha  occ. eigenvalues --   -1.14083  -1.13776  -1.13751  -1.13694  -1.13666
 Alpha  occ. eigenvalues --   -1.13663  -1.13661  -1.13644  -1.13590  -1.13537
 Alpha  occ. eigenvalues --   -0.22167  -0.14611  -0.12726  -0.12157
 Alpha virt. eigenvalues --   -0.05643  -0.04448  -0.03911  -0.03784  -0.02813
 Alpha virt. eigenvalues --   -0.02387  -0.01432  -0.00479  -0.00021   0.00307
 Alpha virt. eigenvalues --    0.00693   0.00801   0.00995   0.01135   0.01178

  Beta  occ. eigenvalues --  -38.44395 -38.44390 -38.44273 -38.44273 -38.43970
  Beta  occ. eigenvalues --  -38.43892 -38.43887  -2.20618  -2.20575  -2.20534
  Beta  occ. eigenvalues --   -2.20528  -2.20264  -2.20068  -2.20062  -1.14845
  Beta  occ. eigenvalues --   -1.14647  -1.14554  -1.14516  -1.14498  -1.14373
  Beta  occ. eigenvalues --   -1.14335  -1.14316  -1.14228  -1.14187  -1.14046
  Beta  occ. eigenvalues --   -1.14018  -1.13715  -1.13680  -1.13672  -1.13645
  Beta  occ. eigenvalues --   -1.13638  -1.13585  -1.13582  -1.13557  -1.13532
  Beta  occ. eigenvalues --   -0.21351  -0.14190  -0.12360
  Beta virt. eigenvalues --   -0.07900  -0.05685  -0.04424  -0.03718  -0.02872
  Beta virt. eigenvalues --   -0.01912  -0.01352  -0.01340  -0.00452   0.00118
  Beta virt. eigenvalues --    0.00340   0.00686   0.00787   0.01006   0.01157

 Mulliken charges and spin densities:
               1          2
     1  Na   0.465508   0.137790
     2  Na  -0.401357   0.443817
     3  Na   0.249138   0.030541
     4  Na  -0.079705  -0.043207
     5  Na  -0.402036   0.443492
     6  Na  -0.081447  -0.043421
     7  Na   0.249899   0.030988
 Sum of Mulliken charges =  -0.00000   1.00000

 Dipole moment (field-independent basis, Debye):
    X=              0.0009    Y=              0.1676    Z=              0.0004  Tot=              0.1676
 Quadrupole moment (field-independent basis, Debye-Ang):
   XX=            -55.8445   YY=            -71.1670   ZZ=            -70.5039
   XY=              0.0052   XZ=             -0.0037   YZ=              0.0002

 Normal termination of Gaussian 16 at Mon Nov 13 20:41:56 2023.
