 Gaussian 16, Revision B.01,
 Gaussian 16:  ES64L-G16RevB.01 20-Dec-2017

 -------------------------
 #P B3LYP/6-311+g(d) force
 -------------------------

 ------------------------------
 Gaussian input prepared by ASE
 ------------------------------
 Symbolic Z-matrix:
 Charge =  0 Multiplicity = 2

                         Standard orientation:
 ---------------------------------------------------------------------
 Center     Atomic      Atomic             Coordinates (Angstroms)
 Number     Number       Type             X           Y           Z
 ---------------------------------------------------------------------
      1         11           0        0.000788    0.032725   -1.522677
      2         11           0       -1.598475   -2.037819    0.000432
      3         11           0       -2.534209    0.665641   -0.000377
      4         11           0       -0.012228    2.652356    0.000276
      5         11           0        0.000379    0.028682    1.523146
      6         11           0        2.529064    0.686910    0.001810
      7         11           0        1.614681   -2.028495   -0.002611
 ---------------------------------------------------------------------

 SCF Done:  E(UB3LYP) =  -1136.10695280     A.U. after   17 cycles

 The electronic state is 2-A.
 Alpha  occ. eigenvalues --  -38.43649 -38.43647 -38.43427 -38.43426 -38.43233
 Alpha  occ. eigenvalues --  -38.43051 -38.43050  -2.19706  -2.19702  -2.19484
 Alpha  occ. eigenvalues --   -2.19475  -2.19330  -2.19309  -2.19238  -1.13586
 Alpha  occ. eigenvalues --   -1.13581  -1.13413  -1.13390  -1.13378  -1.13348
 Alpha  occ. eigenvalues --   -1.13309  -1.13167  -1.13138  -1.13116  -1.13111
 Alpha  occ. eigenvalues --   -1.13069  -1.13010  -1.12972  -1.12964  -1.12892
 Alpha  occ. eigenvalues --   -1.12890  -1.12886  -1.12841  -1.12808  -1.12801
 Alpha  occ. eigenvalues --   -0.20962  -0.13756  -0.13243  -0.11133
 Alpha virt. eigenvalues --   -0.05141  -0.04691  -0.04617  -0.03222  -0.02855
 Alpha virt. eigenvalues --   -0.02022  -0.01119  -0.00953   0.00064   0.00330
 Alpha virt. eigenvalues --    0.00422   0.00427   0.00979   0.01050   0.01064

  Beta  occ. eigenvalues --  -38.43638 -38.43635 -38.43415 -38.43415 -38.43224
  Beta  occ. eigenvalues --  -38.42969 -38.42969  -2.19692  -2.19687  -2.19469
  Beta  occ. eigenvalues --   -2.19460  -2.19231  -2.19180  -2.19162  -1.13574
  Beta  occ. eigenvalues --   -1.13568  -1.13403  -1.13385  -1.13315  -1.13288
  Beta  occ. eigenvalues --   -1.13286  -1.13129  -1.13099  -1.13072  -1.13054
  Beta  occ. eigenvalues --   -1.13053  -1.13006  -1.12911  -1.12900  -1.12842
  Beta  occ. eigenvalues --   -1.12794  -1.12791  -1.12787  -1.12732  -1.12726
  Beta  occ. eigenvalues --   -0.20198  -0.13395  -0.12910
  Beta virt. eigenvalues --   -0.07030  -0.05168  -0.04672  -0.04620  -0.02284
  Beta virt. eigenvalues --   -0.01988  -0.01045  -0.00989  -0.00899   0.00180
  Beta virt. eigenvalues --    0.00333   0.00376   0.00419   0.01004   0.01069

 Mulliken charges and spin densities:
               1          2
     1  Na  -0.848128   0.520014
     2  Na   0.365290   0.009344
     3  Na   0.325139  -0.005040
     4  Na   0.316640  -0.047137
     5  Na  -0.847127   0.520419
     6  Na   0.324480  -0.006095
     7  Na   0.363707   0.008495
 Sum of Mulliken charges =  -0.00000   1.00000

 Dipole moment (field-independent basis, Debye):
    X=              0.0029    Y=              0.1019    Z=              0.0004  Tot=              0.1019
 Quadrupole moment (field-independent basis, Debye-Ang):
   XX=            -59.1296   YY=            -61.2103   ZZ=            -73.9280
   XY=             -0.0092   XZ=              0.0014   YZ=              0.0096

 Normal termination of Gaussian 16 at Mon Nov 13 20:35:55 2023.
