 Gaussian 16, Revision B.01,
 Gaussian 16:  ES64L-G16RevB.01 20-Dec-2017

 -------------------------
 #P B3LYP/6-311+g(d) force
 -------------------------

 ------------------------------
 Gaussian input prepared by ASE
 ------------------------------
 Symbolic Z-matrix:
 Charge =  0 Multiplicity = 2

                         Standard orientation:
 ---------------------------------------------------------------------
 Center     Atomic      Atomic             Coordinates (Angstroms)
 Number     Number       Type             X           Y           Z
 ---------------------------------------------------------------------
      1         11           0        0.651541    0.210766   -1.306505
      2         11           0       -1.647787   -0.339553    1.507075
      3         11           0        3.405574   -0.017236   -0.346441
      4         11           0        1.104646    0.188943    1.448669
      5         11           0       -0.303684   -2.154175   -0.135242
      6         11           0       -0.798332    2.225560    0.035310
      7         11           0       -2.411958   -0.114305   -1.202866
 ---------------------------------------------------------------------

 SCF Done:  E(UB3LYP) =  -1136.08465354     A.U. after   24 cycles

 The electronic state is 2-A.
 Alpha  occ. eigenvalues --  -38.44907 -38.44356 -38.44250 -38.43918 -38.43864
 Alpha  occ. eigenvalues --  -38.42620 -38.42372  -2.20813  -2.20468  -2.20417
 Alpha  occ. eigenvalues --   -2.20183  -2.20119  -2.18720  -2.18435  -1.14588
 Alpha  occ. eigenvalues --   -1.14515  -1.14394  -1.14373  -1.14344  -1.14142
 Alpha  occ. eigenvalues --   -1.14098  -1.14065  -1.13982  -1.13915  -1.13846
 Alpha  occ. eigenvalues --   -1.13779  -1.13724  -1.13655  -1.13615  -1.12445
 Alpha  occ. eigenvalues --   -1.12377  -1.12273  -1.12161  -1.12078  -1.12029
 Alpha  occ. eigenvalues --   -0.21129  -0.14080  -0.12437  -0.11836
 Alpha virt. eigenvalues --   -0.06219  -0.04103  -0.03502  -0.03475  -0.02807
 Alpha virt. eigenvalues --   -0.02625  -0.01877  -0.00511  -0.00252   0.00266
 Alpha virt. eigenvalues --    0.00533   0.00664   0.00885   0.01017   0.01047

  Beta  occ. eigenvalues --  -38.44902 -38.44315 -38.44185 -38.43852 -38.43807
  Beta  occ. eigenvalues --  -38.42605 -38.42361  -2.20803  -2.20372  -2.20326
  Beta  occ. eigenvalues --   -2.20081  -2.20008  -2.18700  -2.18421  -1.14574
  Beta  occ. eigenvalues --   -1.14493  -1.14389  -1.14315  -1.14245  -1.14064
  Beta  occ. eigenvalues --   -1.14027  -1.13993  -1.13924  -1.13846  -1.13777
  Beta  occ. eigenvalues --   -1.13706  -1.13626  -1.13577  -1.13522  -1.12437
  Beta  occ. eigenvalues --   -1.12320  -1.12252  -1.12157  -1.12038  -1.12008
  Beta  occ. eigenvalues --   -0.20278  -0.13915  -0.11505
  Beta virt. eigenvalues --   -0.08015  -0.06124  -0.03490  -0.03479  -0.03274
  Beta virt. eigenvalues --   -0.01920  -0.01799  -0.01648  -0.00232  -0.00174
  Beta virt. eigenvalues --    0.00297   0.00588   0.00808   0.00862   0.01041

 Mulliken charges and spin densities:
               1          2
     1  Na   0.582813   0.266987
     2  Na   0.930605   0.118033
     3  Na  -0.184265   0.099316
     4  Na   0.020179   0.081493
     5  Na  -1.085746   0.102692
     6  Na  -0.920156   0.346923
     7  Na   0.656570  -0.015444
 Sum of Mulliken charges =  -0.00000   1.00000

 Dipole moment (field-independent basis, Debye):
    X=              0.5041    Y=             -0.0174    Z=             -0.2040  Tot=              0.5441
 Quadrupole moment (field-independent basis, Debye-Ang):
   XX=            -51.8084   YY=            -75.4634   ZZ=            -66.4285
   XY=             -0.4464   XZ=              0.2654   YZ=              0.6651

 Normal termination of Gaussian 16 at Mon Nov 13 19:50:50 2023.
