 Gaussian 16, Revision B.01,
 Gaussian 16:  ES64L-G16RevB.01 20-Dec-2017

 -------------------------
 #P B3LYP/6-311+g(d) force
 -------------------------

 ------------------------------
 Gaussian input prepared by ASE
 ------------------------------
 Symbolic Z-matrix:
 Charge =  0 Multiplicity = 2

                         Standard orientation:
 ---------------------------------------------------------------------
 Center     Atomic      Atomic             Coordinates (Angstroms)
 Number     Number       Type             X           Y           Z
 ---------------------------------------------------------------------
      1         11           0        1.037473   -2.152169   -0.205104
      2         11           0        3.983561   -1.682290    0.111068
      3         11           0        3.986107    1.319737    0.188022
      4         11           0        1.226067    2.396845   -0.289557
      5         11           0       -0.814822    0.199393   -0.416272
      6         11           0       -3.426257    0.159411    1.053417
      7         11           0       -5.992128   -0.240927   -0.441574
 ---------------------------------------------------------------------

 SCF Done:  E(UB3LYP) =  -1136.09947354     A.U. after   25 cycles

 The electronic state is 2-A.
 Alpha  occ. eigenvalues --  -38.45308 -38.45210 -38.44622 -38.44428 -38.43933
 Alpha  occ. eigenvalues --  -38.43670 -38.43236  -2.21209  -2.21112  -2.20438
 Alpha  occ. eigenvalues --   -2.20298  -2.19904  -2.19557  -2.19123  -1.14901
 Alpha  occ. eigenvalues --   -1.14836  -1.14834  -1.14793  -1.14750  -1.14740
 Alpha  occ. eigenvalues --   -1.14192  -1.14075  -1.14073  -1.14019  -1.13933
 Alpha  occ. eigenvalues --   -1.13892  -1.13591  -1.13571  -1.13524  -1.13237
 Alpha  occ. eigenvalues --   -1.13188  -1.13174  -1.12816  -1.12789  -1.12750
 Alpha  occ. eigenvalues --   -0.17691  -0.14685  -0.12491  -0.11685
 Alpha virt. eigenvalues --   -0.06279  -0.05134  -0.04669  -0.03934  -0.03379
 Alpha virt. eigenvalues --   -0.02287  -0.01877  -0.01281  -0.01107  -0.00325
 Alpha virt. eigenvalues --   -0.00132   0.00109   0.00205   0.00343   0.00817

  Beta  occ. eigenvalues --  -38.45220 -38.45130 -38.44579 -38.44432 -38.43903
  Beta  occ. eigenvalues --  -38.43653 -38.43235  -2.21048  -2.20966  -2.20359
  Beta  occ. eigenvalues --   -2.20307  -2.19851  -2.19529  -2.19125  -1.14772
  Beta  occ. eigenvalues --   -1.14735  -1.14728  -1.14682  -1.14657  -1.14643
  Beta  occ. eigenvalues --   -1.14148  -1.14034  -1.14021  -1.14004  -1.13940
  Beta  occ. eigenvalues --   -1.13873  -1.13558  -1.13526  -1.13488  -1.13203
  Beta  occ. eigenvalues --   -1.13173  -1.13150  -1.12796  -1.12787  -1.12755
  Beta  occ. eigenvalues --   -0.16923  -0.14187  -0.11429
  Beta virt. eigenvalues --   -0.08827  -0.05883  -0.04506  -0.04288  -0.03475
  Beta virt. eigenvalues --   -0.03187  -0.02050  -0.01602  -0.01095  -0.00687
  Beta virt. eigenvalues --   -0.00248  -0.00015   0.00185   0.00434   0.00524

 Mulliken charges and spin densities:
               1          2
     1  Na   1.184332   0.357372
     2  Na  -0.249081  -0.020738
     3  Na  -0.130321   0.218749
     4  Na   1.063520   0.354491
     5  Na  -2.390008  -0.112029
     6  Na   0.108102   0.070135
     7  Na   0.413456   0.132019
 Sum of Mulliken charges =  -0.00000   1.00000

 Dipole moment (field-independent basis, Debye):
    X=             -0.4809    Y=              0.0372    Z=             -0.1567  Tot=              0.5072
 Quadrupole moment (field-independent basis, Debye-Ang):
   XX=            -59.7663   YY=            -70.4637   ZZ=            -69.4305
   XY=              5.0271   XZ=              3.9326   YZ=              1.3564

 Normal termination of Gaussian 16 at Mon Nov 13 14:49:11 2023.
