 Gaussian 16, Revision B.01,
 Gaussian 16:  ES64L-G16RevB.01 20-Dec-2017

 -------------------------
 #P B3LYP/6-311+g(d) force
 -------------------------

 ------------------------------
 Gaussian input prepared by ASE
 ------------------------------
 Symbolic Z-matrix:
 Charge =  0 Multiplicity = 2

                         Standard orientation:
 ---------------------------------------------------------------------
 Center     Atomic      Atomic             Coordinates (Angstroms)
 Number     Number       Type             X           Y           Z
 ---------------------------------------------------------------------
      1         11           0        0.325451    0.556226   -0.651687
      2         11           0       -1.349468   -0.235347    1.712458
      3         11           0       -2.158200    2.102592    0.016207
      4         11           0       -2.372136   -0.685479   -1.067278
      5         11           0       -0.100489   -2.343054   -0.020144
      6         11           0        2.670883   -1.188911    0.022159
      7         11           0        2.983959    1.793972   -0.011716
 ---------------------------------------------------------------------

 SCF Done:  E(UB3LYP) =  -1136.09859133     A.U. after   27 cycles

 The electronic state is 2-A.
 Alpha  occ. eigenvalues --  -38.44484 -38.44409 -38.44023 -38.43875 -38.43538
 Alpha  occ. eigenvalues --  -38.43172 -38.42657  -2.20449  -2.20288  -2.20117
 Alpha  occ. eigenvalues --   -2.19858  -2.19642  -2.19450  -2.18726  -1.14216
 Alpha  occ. eigenvalues --   -1.14170  -1.14070  -1.13985  -1.13911  -1.13910
 Alpha  occ. eigenvalues --   -1.13885  -1.13801  -1.13766  -1.13598  -1.13520
 Alpha  occ. eigenvalues --   -1.13456  -1.13388  -1.13250  -1.13210  -1.13114
 Alpha  occ. eigenvalues --   -1.13082  -1.13066  -1.12411  -1.12382  -1.12334
 Alpha  occ. eigenvalues --   -0.20148  -0.14606  -0.12345  -0.10619
 Alpha virt. eigenvalues --   -0.06112  -0.05753  -0.03862  -0.03381  -0.02258
 Alpha virt. eigenvalues --   -0.02066  -0.01667  -0.01051  -0.00376  -0.00099
 Alpha virt. eigenvalues --    0.00229   0.00331   0.00790   0.00846   0.00927

  Beta  occ. eigenvalues --  -38.44485 -38.44413 -38.43969 -38.43860 -38.43453
  Beta  occ. eigenvalues --  -38.43139 -38.42642  -2.20452  -2.20296  -2.20023
  Beta  occ. eigenvalues --   -2.19836  -2.19487  -2.19398  -2.18705  -1.14218
  Beta  occ. eigenvalues --   -1.14178  -1.14056  -1.13987  -1.13910  -1.13893
  Beta  occ. eigenvalues --   -1.13864  -1.13740  -1.13666  -1.13569  -1.13480
  Beta  occ. eigenvalues --   -1.13416  -1.13302  -1.13139  -1.13106  -1.13079
  Beta  occ. eigenvalues --   -1.13039  -1.12969  -1.12401  -1.12374  -1.12261
  Beta  occ. eigenvalues --   -0.19382  -0.14415  -0.12071
  Beta virt. eigenvalues --   -0.06473  -0.05939  -0.05716  -0.03874  -0.02747
  Beta virt. eigenvalues --   -0.01849  -0.01539  -0.01101  -0.00690  -0.00372
  Beta virt. eigenvalues --    0.00144   0.00256   0.00416   0.00840   0.00862

 Mulliken charges and spin densities:
               1          2
     1  Na  -1.777522   0.635474
     2  Na  -1.095370   0.433516
     3  Na   0.153014   0.080998
     4  Na   1.342781  -0.047549
     5  Na   0.747850   0.113014
     6  Na   0.043887  -0.036445
     7  Na   0.585361  -0.179008
 Sum of Mulliken charges =  -0.00000   1.00000

 Dipole moment (field-independent basis, Debye):
    X=              0.5323    Y=              0.3284    Z=              0.2694  Tot=              0.6810
 Quadrupole moment (field-independent basis, Debye-Ang):
   XX=            -52.7504   YY=            -64.7685   ZZ=            -75.3297
   XY=             -0.5899   XZ=              1.6915   YZ=              0.6437

 Normal termination of Gaussian 16 at Mon Nov 13 16:34:33 2023.
