 Gaussian 16, Revision B.01,
 Gaussian 16:  ES64L-G16RevB.01 20-Dec-2017

 -------------------------
 #P B3LYP/6-311+g(d) force
 -------------------------

 ------------------------------
 Gaussian input prepared by ASE
 ------------------------------
 Symbolic Z-matrix:
 Charge =  0 Multiplicity = 2

                         Standard orientation:
 ---------------------------------------------------------------------
 Center     Atomic      Atomic             Coordinates (Angstroms)
 Number     Number       Type             X           Y           Z
 ---------------------------------------------------------------------
      1         11           0        0.276622   -0.234831    2.387111
      2         11           0        0.079532    2.064533    0.467974
      3         11           0        2.740634    1.683351   -0.869243
      4         11           0        2.910540   -1.299364   -1.144372
      5         11           0        0.317020   -2.168901    0.092186
      6         11           0       -1.911604   -0.176272    0.346348
      7         11           0       -4.412744    0.131486   -1.280003
 ---------------------------------------------------------------------

 SCF Done:  E(UB3LYP) =  -1136.09848711     A.U. after   32 cycles

 The electronic state is 2-A.
 Alpha  occ. eigenvalues --  -38.45646 -38.45547 -38.44249 -38.43649 -38.43416
 Alpha  occ. eigenvalues --  -38.43388 -38.42916  -2.21546  -2.21475  -2.20144
 Alpha  occ. eigenvalues --   -2.19708  -2.19359  -2.19304  -2.18891  -1.15264
 Alpha  occ. eigenvalues --   -1.15169  -1.15157  -1.15148  -1.15089  -1.15080
 Alpha  occ. eigenvalues --   -1.13835  -1.13818  -1.13770  -1.13479  -1.13377
 Alpha  occ. eigenvalues --   -1.13358  -1.13111  -1.13042  -1.12997  -1.12959
 Alpha  occ. eigenvalues --   -1.12934  -1.12853  -1.12570  -1.12540  -1.12524
 Alpha  occ. eigenvalues --   -0.18977  -0.14243  -0.12427  -0.11679
 Alpha virt. eigenvalues --   -0.06252  -0.04838  -0.04753  -0.03483  -0.02653
 Alpha virt. eigenvalues --   -0.02624  -0.02140  -0.01192  -0.00588  -0.00039
 Alpha virt. eigenvalues --    0.00159   0.00204   0.00572   0.00638   0.00845

  Beta  occ. eigenvalues --  -38.45545 -38.45469 -38.44210 -38.43635 -38.43406
  Beta  occ. eigenvalues --  -38.43371 -38.42911  -2.21407  -2.21289  -2.20072
  Beta  occ. eigenvalues --   -2.19697  -2.19332  -2.19287  -2.18885  -1.15164
  Beta  occ. eigenvalues --   -1.15068  -1.15060  -1.15021  -1.14963  -1.14954
  Beta  occ. eigenvalues --   -1.13780  -1.13772  -1.13722  -1.13428  -1.13381
  Beta  occ. eigenvalues --   -1.13315  -1.13100  -1.13002  -1.12979  -1.12941
  Beta  occ. eigenvalues --   -1.12922  -1.12841  -1.12557  -1.12540  -1.12512
  Beta  occ. eigenvalues --   -0.18370  -0.13224  -0.11581
  Beta virt. eigenvalues --   -0.08883  -0.05734  -0.04576  -0.04283  -0.03417
  Beta virt. eigenvalues --   -0.02208  -0.02110  -0.01657  -0.00777  -0.00455
  Beta virt. eigenvalues --    0.00109   0.00257   0.00290   0.00658   0.00689

 Mulliken charges and spin densities:
               1          2
     1  Na   4.500893  -0.214147
     2  Na  -0.841308   0.139173
     3  Na  -0.156298   0.009926
     4  Na   0.076241   0.084328
     5  Na  -0.669799   0.059551
     6  Na  -0.692358   0.934566
     7  Na  -2.217371  -0.013397
 Sum of Mulliken charges =  -0.00000   1.00000

 Dipole moment (field-independent basis, Debye):
    X=             -0.7455    Y=             -0.1957    Z=              0.1888  Tot=              0.7935
 Quadrupole moment (field-independent basis, Debye-Ang):
   XX=            -56.6803   YY=            -77.1132   ZZ=            -62.2843
   XY=             -1.2577   XZ=              4.1262   YZ=              0.7928

 Normal termination of Gaussian 16 at Mon Nov 13 16:00:53 2023.
