 Gaussian 16, Revision B.01,
 Gaussian 16:  ES64L-G16RevB.01 20-Dec-2017

 -------------------------
 #P B3LYP/6-311+g(d) force
 -------------------------

 ------------------------------
 Gaussian input prepared by ASE
 ------------------------------
 Symbolic Z-matrix:
 Charge =  0 Multiplicity = 2

                         Standard orientation:
 ---------------------------------------------------------------------
 Center     Atomic      Atomic             Coordinates (Angstroms)
 Number     Number       Type             X           Y           Z
 ---------------------------------------------------------------------
      1         11           0       -1.007875   -1.882612    1.597774
      2         11           0       -2.750029    2.649387    0.773910
      3         11           0       -4.587384   -1.170170   -1.261627
      4         11           0       -1.953871    0.048111   -0.495501
      5         11           0        0.972444   -0.179881    0.126803
      6         11           0        3.533292    1.243766   -0.510864
      7         11           0        5.793423   -0.708601   -0.230496
 ---------------------------------------------------------------------

 SCF Done:  E(UB3LYP) =  -1136.09324823     A.U. after   23 cycles

 The electronic state is 2-A.
 Alpha  occ. eigenvalues --  -38.44957 -38.44594 -38.44540 -38.44489 -38.43709
 Alpha  occ. eigenvalues --  -38.43497 -38.43089  -2.20754  -2.20435  -2.20425
 Alpha  occ. eigenvalues --   -2.20364  -2.19534  -2.19472  -2.19185  -1.14463
 Alpha  occ. eigenvalues --   -1.14402  -1.14398  -1.14152  -1.14117  -1.14090
 Alpha  occ. eigenvalues --   -1.14068  -1.14059  -1.14053  -1.14011  -1.13995
 Alpha  occ. eigenvalues --   -1.13979  -1.13278  -1.13193  -1.13168  -1.13141
 Alpha  occ. eigenvalues --   -1.13124  -1.13084  -1.12872  -1.12861  -1.12758
 Alpha  occ. eigenvalues --   -0.17469  -0.14439  -0.11459  -0.11082
 Alpha virt. eigenvalues --   -0.07176  -0.05121  -0.04070  -0.03495  -0.02767
 Alpha virt. eigenvalues --   -0.02477  -0.02082  -0.01529  -0.00985  -0.00583
 Alpha virt. eigenvalues --   -0.00259   0.00015   0.00327   0.00454   0.00573

  Beta  occ. eigenvalues --  -38.44951 -38.44519 -38.44493 -38.44489 -38.43656
  Beta  occ. eigenvalues --  -38.43493 -38.43071  -2.20742  -2.20398  -2.20366
  Beta  occ. eigenvalues --   -2.20238  -2.19466  -2.19435  -2.19163  -1.14456
  Beta  occ. eigenvalues --   -1.14394  -1.14390  -1.14131  -1.14079  -1.14052
  Beta  occ. eigenvalues --   -1.14025  -1.13997  -1.13990  -1.13975  -1.13926
  Beta  occ. eigenvalues --   -1.13882  -1.13235  -1.13168  -1.13115  -1.13101
  Beta  occ. eigenvalues --   -1.13074  -1.13068  -1.12856  -1.12777  -1.12745
  Beta  occ. eigenvalues --   -0.16872  -0.14206  -0.11007
  Beta virt. eigenvalues --   -0.07585  -0.06637  -0.04911  -0.03896  -0.03184
  Beta virt. eigenvalues --   -0.02437  -0.02143  -0.01635  -0.01272  -0.00762
  Beta virt. eigenvalues --   -0.00272  -0.00179   0.00167   0.00385   0.00554

 Mulliken charges and spin densities:
               1          2
     1  Na   1.141513   0.488721
     2  Na   0.315661   0.575817
     3  Na  -0.022571   0.233677
     4  Na  -0.836078  -0.022408
     5  Na  -0.456724  -0.184252
     6  Na  -0.147661  -0.127157
     7  Na   0.005859   0.035602
 Sum of Mulliken charges =  -0.00000   1.00000

 Dipole moment (field-independent basis, Debye):
    X=              1.4809    Y=             -0.7155    Z=              1.0748  Tot=              1.9647
 Quadrupole moment (field-independent basis, Debye-Ang):
   XX=            -62.7096   YY=            -65.3240   ZZ=            -68.1058
   XY=             -1.8866   XZ=             -3.1124   YZ=             -1.4413

 Normal termination of Gaussian 16 at Mon Nov 13 15:02:03 2023.
