 Gaussian 16, Revision B.01,
 Gaussian 16:  ES64L-G16RevB.01 20-Dec-2017

 -------------------------
 #P B3LYP/6-311+g(d) force
 -------------------------

 ------------------------------
 Gaussian input prepared by ASE
 ------------------------------
 Symbolic Z-matrix:
 Charge =  0 Multiplicity = 2

                         Standard orientation:
 ---------------------------------------------------------------------
 Center     Atomic      Atomic             Coordinates (Angstroms)
 Number     Number       Type             X           Y           Z
 ---------------------------------------------------------------------
      1         11           0       -0.397054    2.909673    0.384582
      2         11           0        3.259650   -0.301819    1.398920
      3         11           0        2.835533   -1.719916   -1.208027
      4         11           0        1.595270    0.972324   -0.747035
      5         11           0       -1.339547    0.355314   -0.870724
      6         11           0       -1.880153   -1.406285    1.499583
      7         11           0       -4.073699   -0.809291   -0.457300
 ---------------------------------------------------------------------

 SCF Done:  E(UB3LYP) =  -1136.10035256     A.U. after   23 cycles

 The electronic state is 2-A.
 Alpha  occ. eigenvalues --  -38.45045 -38.44971 -38.44162 -38.43750 -38.43408
 Alpha  occ. eigenvalues --  -38.43061 -38.42925  -2.20933  -2.20858  -2.20065
 Alpha  occ. eigenvalues --   -2.19662  -2.19499  -2.19163  -2.18832  -1.14701
 Alpha  occ. eigenvalues --   -1.14623  -1.14558  -1.14550  -1.14480  -1.14408
 Alpha  occ. eigenvalues --   -1.13800  -1.13729  -1.13682  -1.13376  -1.13289
 Alpha  occ. eigenvalues --   -1.13271  -1.13251  -1.13161  -1.13148  -1.12853
 Alpha  occ. eigenvalues --   -1.12818  -1.12793  -1.12488  -1.12462  -1.12443
 Alpha  occ. eigenvalues --   -0.18279  -0.14956  -0.11928  -0.09922
 Alpha virt. eigenvalues --   -0.06754  -0.05088  -0.04861  -0.03370  -0.02844
 Alpha virt. eigenvalues --   -0.02356  -0.01804  -0.01029  -0.00723  -0.00188
 Alpha virt. eigenvalues --    0.00102   0.00222   0.00285   0.00658   0.00749

  Beta  occ. eigenvalues --  -38.45015 -38.44971 -38.44127 -38.43719 -38.43380
  Beta  occ. eigenvalues --  -38.43034 -38.42919  -2.20879  -2.20856  -2.19999
  Beta  occ. eigenvalues --   -2.19606  -2.19451  -2.19122  -2.18822  -1.14677
  Beta  occ. eigenvalues --   -1.14588  -1.14542  -1.14519  -1.14476  -1.14387
  Beta  occ. eigenvalues --   -1.13760  -1.13679  -1.13631  -1.13333  -1.13251
  Beta  occ. eigenvalues --   -1.13222  -1.13219  -1.13122  -1.13096  -1.12804
  Beta  occ. eigenvalues --   -1.12784  -1.12744  -1.12482  -1.12451  -1.12424
  Beta  occ. eigenvalues --   -0.17708  -0.14706  -0.11806
  Beta virt. eigenvalues --   -0.06563  -0.06237  -0.04740  -0.04412  -0.03230
  Beta virt. eigenvalues --   -0.02599  -0.01951  -0.01200  -0.00969  -0.00279
  Beta virt. eigenvalues --   -0.00161   0.00181   0.00394   0.00442   0.00783

 Mulliken charges and spin densities:
               1          2
     1  Na  -0.017350   0.168240
     2  Na  -0.764691  -0.108755
     3  Na   0.580499  -0.116158
     4  Na   0.668079   1.083842
     5  Na  -1.005061  -0.273554
     6  Na  -0.371387   0.254317
     7  Na   0.909912  -0.007932
 Sum of Mulliken charges =  -0.00000   1.00000

 Dipole moment (field-independent basis, Debye):
    X=             -1.4673    Y=             -0.5529    Z=              0.4914  Tot=              1.6433
 Quadrupole moment (field-independent basis, Debye-Ang):
   XX=            -55.0177   YY=            -67.9304   ZZ=            -72.0759
   XY=             -1.3601   XZ=              2.5043   YZ=              1.4538

 Normal termination of Gaussian 16 at Mon Nov 13 17:34:55 2023.
