 Gaussian 16, Revision B.01,
 Gaussian 16:  ES64L-G16RevB.01 20-Dec-2017

 -------------------------
 #P B3LYP/6-311+g(d) force
 -------------------------

 ------------------------------
 Gaussian input prepared by ASE
 ------------------------------
 Symbolic Z-matrix:
 Charge =  0 Multiplicity = 2

                         Standard orientation:
 ---------------------------------------------------------------------
 Center     Atomic      Atomic             Coordinates (Angstroms)
 Number     Number       Type             X           Y           Z
 ---------------------------------------------------------------------
      1         11           0       -1.804152    2.221127   -0.303554
      2         11           0       -0.367607   -1.459164   -1.563899
      3         11           0       -3.105788   -0.410576   -0.925721
      4         11           0       -2.332128   -1.089824    1.895039
      5         11           0        0.145068    0.251169    0.851669
      6         11           0        2.768168    1.385061   -0.041514
      7         11           0        4.696439   -0.897794    0.087980
 ---------------------------------------------------------------------

 SCF Done:  E(UB3LYP) =  -1136.08838854     A.U. after   33 cycles

 The electronic state is 2-A.
 Alpha  occ. eigenvalues --  -38.45798 -38.44961 -38.44806 -38.44410 -38.44229
 Alpha  occ. eigenvalues --  -38.44146 -38.42969  -2.21585  -2.20968  -2.20701
 Alpha  occ. eigenvalues --   -2.20323  -2.20294  -2.20088  -2.18877  -1.15291
 Alpha  occ. eigenvalues --   -1.15234  -1.15215  -1.14700  -1.14654  -1.14612
 Alpha  occ. eigenvalues --   -1.14456  -1.14312  -1.14269  -1.14176  -1.14002
 Alpha  occ. eigenvalues --   -1.13940  -1.13934  -1.13927  -1.13899  -1.13748
 Alpha  occ. eigenvalues --   -1.13697  -1.13642  -1.12572  -1.12537  -1.12494
 Alpha  occ. eigenvalues --   -0.19175  -0.14648  -0.11430  -0.10686
 Alpha virt. eigenvalues --   -0.08206  -0.05243  -0.03890  -0.03396  -0.03155
 Alpha virt. eigenvalues --   -0.02195  -0.02083  -0.01723  -0.01180  -0.00276
 Alpha virt. eigenvalues --   -0.00102   0.00192   0.00234   0.00556   0.00792

  Beta  occ. eigenvalues --  -38.45798 -38.44930 -38.44754 -38.44411 -38.44195
  Beta  occ. eigenvalues --  -38.44051 -38.42962  -2.21586  -2.20917  -2.20608
  Beta  occ. eigenvalues --   -2.20301  -2.20264  -2.19914  -2.18866  -1.15292
  Beta  occ. eigenvalues --   -1.15234  -1.15215  -1.14643  -1.14604  -1.14566
  Beta  occ. eigenvalues --   -1.14395  -1.14233  -1.14210  -1.14137  -1.13949
  Beta  occ. eigenvalues --   -1.13928  -1.13918  -1.13898  -1.13879  -1.13630
  Beta  occ. eigenvalues --   -1.13593  -1.13520  -1.12569  -1.12525  -1.12466
  Beta  occ. eigenvalues --   -0.18408  -0.14523  -0.10513
  Beta virt. eigenvalues --   -0.08034  -0.07169  -0.05160  -0.03454  -0.03306
  Beta virt. eigenvalues --   -0.02841  -0.01677  -0.01514  -0.01283  -0.00667
  Beta virt. eigenvalues --   -0.00223  -0.00096   0.00228   0.00415   0.00604

 Mulliken charges and spin densities:
               1          2
     1  Na   0.036625   0.243970
     2  Na  -0.306179   0.291033
     3  Na   0.685077   0.223061
     4  Na   0.506478   0.280564
     5  Na  -1.255103  -0.024555
     6  Na   0.163992  -0.004226
     7  Na   0.169110  -0.009847
 Sum of Mulliken charges =  -0.00000   1.00000

 Dipole moment (field-independent basis, Debye):
    X=              1.2599    Y=             -0.3829    Z=             -0.2611  Tot=              1.3424
 Quadrupole moment (field-independent basis, Debye-Ang):
   XX=            -44.1277   YY=            -77.2926   ZZ=            -72.3504
   XY=             -4.8321   XZ=              0.3320   YZ=             -2.0219

 Normal termination of Gaussian 16 at Mon Nov 13 15:46:41 2023.
