 Gaussian 16, Revision B.01,
 Gaussian 16:  ES64L-G16RevB.01 20-Dec-2017

 -------------------------
 #P B3LYP/6-311+g(d) force
 -------------------------

 ------------------------------
 Gaussian input prepared by ASE
 ------------------------------
 Symbolic Z-matrix:
 Charge =  0 Multiplicity = 2

                         Standard orientation:
 ---------------------------------------------------------------------
 Center     Atomic      Atomic             Coordinates (Angstroms)
 Number     Number       Type             X           Y           Z
 ---------------------------------------------------------------------
      1         11           0       -1.936296   -0.265042    1.558700
      2         11           0        3.105564    1.030937   -0.922677
      3         11           0        3.013830   -1.401010    0.830311
      4         11           0        0.464608   -0.227439   -0.241045
      5         11           0       -1.745485   -2.200445   -0.721004
      6         11           0       -2.193691    0.711967   -1.264046
      7         11           0       -0.708529    2.351031    0.759761
 ---------------------------------------------------------------------

 SCF Done:  E(UB3LYP) =  -1136.09815940     A.U. after   27 cycles

 The electronic state is 2-A.
 Alpha  occ. eigenvalues --  -38.44916 -38.44863 -38.43920 -38.43772 -38.43046
 Alpha  occ. eigenvalues --  -38.42816 -38.42457  -2.20803  -2.20740  -2.20017
 Alpha  occ. eigenvalues --   -2.19872  -2.19336  -2.18809  -2.18454  -1.14590
 Alpha  occ. eigenvalues --   -1.14485  -1.14427  -1.14422  -1.14359  -1.14294
 Alpha  occ. eigenvalues --   -1.13835  -1.13697  -1.13643  -1.13586  -1.13495
 Alpha  occ. eigenvalues --   -1.13453  -1.13031  -1.13015  -1.12996  -1.12491
 Alpha  occ. eigenvalues --   -1.12442  -1.12424  -1.12162  -1.12088  -1.12065
 Alpha  occ. eigenvalues --   -0.19644  -0.14647  -0.11746  -0.10701
 Alpha virt. eigenvalues --   -0.06149  -0.05594  -0.03711  -0.03358  -0.02321
 Alpha virt. eigenvalues --   -0.02106  -0.01830  -0.00922  -0.00407   0.00032
 Alpha virt. eigenvalues --    0.00260   0.00342   0.00673   0.00780   0.00819

  Beta  occ. eigenvalues --  -38.44904 -38.44852 -38.43870 -38.43709 -38.43014
  Beta  occ. eigenvalues --  -38.42803 -38.42443  -2.20780  -2.20722  -2.19926
  Beta  occ. eigenvalues --   -2.19758  -2.19290  -2.18790  -2.18434  -1.14578
  Beta  occ. eigenvalues --   -1.14463  -1.14410  -1.14407  -1.14344  -1.14279
  Beta  occ. eigenvalues --   -1.13781  -1.13616  -1.13572  -1.13507  -1.13408
  Beta  occ. eigenvalues --   -1.13370  -1.13008  -1.12980  -1.12884  -1.12482
  Beta  occ. eigenvalues --   -1.12428  -1.12376  -1.12152  -1.12069  -1.12019
  Beta  occ. eigenvalues --   -0.18893  -0.14488  -0.11442
  Beta virt. eigenvalues --   -0.06817  -0.05923  -0.05150  -0.03634  -0.03139
  Beta virt. eigenvalues --   -0.01942  -0.01706  -0.01047  -0.00718  -0.00121
  Beta virt. eigenvalues --    0.00160   0.00330   0.00409   0.00791   0.00830

 Mulliken charges and spin densities:
               1          2
     1  Na  -0.190261   0.262880
     2  Na   0.088999  -0.137396
     3  Na   0.421616  -0.450195
     4  Na  -2.030586   1.149566
     5  Na   0.907747   0.036588
     6  Na   0.500664   0.093057
     7  Na   0.301820   0.045501
 Sum of Mulliken charges =  -0.00000   1.00000

 Dipole moment (field-independent basis, Debye):
    X=              1.3801    Y=              0.0217    Z=              0.0833  Tot=              1.3828
 Quadrupole moment (field-independent basis, Debye-Ang):
   XX=            -52.2980   YY=            -68.8914   ZZ=            -70.2936
   XY=              0.1956   XZ=              0.2762   YZ=             -2.7391

 Normal termination of Gaussian 16 at Mon Nov 13 20:14:59 2023.
