 Gaussian 16, Revision B.01,
 Gaussian 16:  ES64L-G16RevB.01 20-Dec-2017

 -------------------------
 #P B3LYP/6-311+g(d) force
 -------------------------

 ------------------------------
 Gaussian input prepared by ASE
 ------------------------------
 Symbolic Z-matrix:
 Charge =  0 Multiplicity = 2

                         Standard orientation:
 ---------------------------------------------------------------------
 Center     Atomic      Atomic             Coordinates (Angstroms)
 Number     Number       Type             X           Y           Z
 ---------------------------------------------------------------------
      1         11           0        2.260702    1.675658    0.204630
      2         11           0        1.619784   -0.356813    2.318638
      3         11           0        3.428598   -0.645781   -1.298138
      4         11           0        0.882085   -1.800565   -0.208457
      5         11           0       -0.344959    0.821012   -1.018559
      6         11           0       -3.083643    1.390811    0.044067
      7         11           0       -4.762566   -1.084322   -0.042182
 ---------------------------------------------------------------------

 SCF Done:  E(UB3LYP) =  -1136.08233441     A.U. after   39 cycles

 The electronic state is 2-A.
 Alpha  occ. eigenvalues --  -38.45277 -38.44926 -38.44541 -38.44475 -38.44474
 Alpha  occ. eigenvalues --  -38.44405 -38.44247  -2.21065  -2.20869  -2.20519
 Alpha  occ. eigenvalues --   -2.20449  -2.20354  -2.20335  -2.20242  -1.14782
 Alpha  occ. eigenvalues --   -1.14716  -1.14700  -1.14575  -1.14555  -1.14440
 Alpha  occ. eigenvalues --   -1.14353  -1.14256  -1.14167  -1.14161  -1.14106
 Alpha  occ. eigenvalues --   -1.14086  -1.14057  -1.13997  -1.13989  -1.13961
 Alpha  occ. eigenvalues --   -1.13949  -1.13901  -1.13884  -1.13848  -1.13806
 Alpha  occ. eigenvalues --   -0.19324  -0.14566  -0.11763  -0.10573
 Alpha virt. eigenvalues --   -0.08386  -0.05512  -0.03680  -0.03496  -0.03069
 Alpha virt. eigenvalues --   -0.02472  -0.02337  -0.01840  -0.01175  -0.00355
 Alpha virt. eigenvalues --   -0.00223   0.00141   0.00194   0.00506   0.00716

  Beta  occ. eigenvalues --  -38.45278 -38.44810 -38.44520 -38.44477 -38.44461
  Beta  occ. eigenvalues --  -38.44351 -38.44226  -2.21069  -2.20656  -2.20481
  Beta  occ. eigenvalues --   -2.20433  -2.20358  -2.20238  -2.20210  -1.14785
  Beta  occ. eigenvalues --   -1.14718  -1.14703  -1.14445  -1.14408  -1.14338
  Beta  occ. eigenvalues --   -1.14290  -1.14226  -1.14139  -1.14130  -1.14052
  Beta  occ. eigenvalues --   -1.14041  -1.14025  -1.13996  -1.13987  -1.13956
  Beta  occ. eigenvalues --   -1.13872  -1.13846  -1.13830  -1.13823  -1.13757
  Beta  occ. eigenvalues --   -0.18510  -0.14463  -0.10382
  Beta virt. eigenvalues --   -0.08168  -0.07494  -0.05367  -0.03468  -0.03168
  Beta virt. eigenvalues --   -0.02714  -0.01984  -0.01701  -0.01469  -0.00725
  Beta virt. eigenvalues --   -0.00306  -0.00163   0.00183   0.00323   0.00557

 Mulliken charges and spin densities:
               1          2
     1  Na  -0.006191   0.096229
     2  Na  -0.119911   0.399976
     3  Na   0.516226   0.200794
     4  Na  -0.499021   0.063062
     5  Na  -0.060873   0.182920
     6  Na   0.292397   0.077330
     7  Na  -0.122627  -0.020312
 Sum of Mulliken charges =  -0.00000   1.00000

 Dipole moment (field-independent basis, Debye):
    X=             -0.4720    Y=              0.0768    Z=              0.5799  Tot=              0.7516
 Quadrupole moment (field-independent basis, Debye-Ang):
   XX=            -51.0950   YY=            -77.3558   ZZ=            -70.3114
   XY=              6.6682   XZ=              0.6804   YZ=             -0.2006

 Normal termination of Gaussian 16 at Mon Nov 13 15:05:01 2023.
