 Gaussian 16, Revision B.01,
 Gaussian 16:  ES64L-G16RevB.01 20-Dec-2017

 -------------------------
 #P B3LYP/6-311+g(d) force
 -------------------------

 ------------------------------
 Gaussian input prepared by ASE
 ------------------------------
 Symbolic Z-matrix:
 Charge =  0 Multiplicity = 2

                         Standard orientation:
 ---------------------------------------------------------------------
 Center     Atomic      Atomic             Coordinates (Angstroms)
 Number     Number       Type             X           Y           Z
 ---------------------------------------------------------------------
      1         11           0        0.284467    0.357267   -1.557427
      2         11           0        0.084276    2.920993   -0.020390
      3         11           0        3.011637   -0.893436   -1.373985
      4         11           0        2.861602   -0.803135    1.622556
      5         11           0        0.076610    0.298181    1.433955
      6         11           0       -1.745487   -1.407025   -0.229561
      7         11           0       -4.573104   -0.472845    0.124852
 ---------------------------------------------------------------------

 SCF Done:  E(UB3LYP) =  -1136.09527338     A.U. after   23 cycles

 The electronic state is 2-A.
 Alpha  occ. eigenvalues --  -38.45355 -38.44384 -38.44143 -38.44121 -38.44001
 Alpha  occ. eigenvalues --  -38.43933 -38.43055  -2.21131  -2.20328  -2.20209
 Alpha  occ. eigenvalues --   -2.20046  -2.20024  -2.19908  -2.18964  -1.14833
 Alpha  occ. eigenvalues --   -1.14786  -1.14781  -1.14153  -1.14031  -1.13929
 Alpha  occ. eigenvalues --   -1.13918  -1.13882  -1.13834  -1.13825  -1.13772
 Alpha  occ. eigenvalues --   -1.13689  -1.13658  -1.13617  -1.13561  -1.13534
 Alpha  occ. eigenvalues --   -1.13524  -1.13475  -1.12631  -1.12620  -1.12577
 Alpha  occ. eigenvalues --   -0.19152  -0.13728  -0.11846  -0.11663
 Alpha virt. eigenvalues --   -0.07365  -0.04364  -0.03883  -0.03387  -0.03157
 Alpha virt. eigenvalues --   -0.02742  -0.02506  -0.00916  -0.00723  -0.00208
 Alpha virt. eigenvalues --    0.00147   0.00332   0.00627   0.00773   0.00825

  Beta  occ. eigenvalues --  -38.45377 -38.44367 -38.44111 -38.44055 -38.43960
  Beta  occ. eigenvalues --  -38.43865 -38.43036  -2.21172  -2.20297  -2.20095
  Beta  occ. eigenvalues --   -2.19989  -2.19905  -2.19833  -2.18931  -1.14859
  Beta  occ. eigenvalues --   -1.14813  -1.14809  -1.14117  -1.13977  -1.13904
  Beta  occ. eigenvalues --   -1.13855  -1.13791  -1.13756  -1.13754  -1.13730
  Beta  occ. eigenvalues --   -1.13634  -1.13590  -1.13532  -1.13485  -1.13474
  Beta  occ. eigenvalues --   -1.13462  -1.13425  -1.12612  -1.12579  -1.12556
  Beta  occ. eigenvalues --   -0.18350  -0.13706  -0.11470
  Beta virt. eigenvalues --   -0.07553  -0.07241  -0.03837  -0.03689  -0.03318
  Beta virt. eigenvalues --   -0.02645  -0.02021  -0.01906  -0.00729  -0.00550
  Beta virt. eigenvalues --   -0.00174   0.00123   0.00497   0.00636   0.00860

 Mulliken charges and spin densities:
               1          2
     1  Na   0.079886   0.188173
     2  Na  -0.007380   0.254567
     3  Na   0.098282   0.095873
     4  Na   0.425005   0.208115
     5  Na  -0.858119   0.117971
     6  Na   0.133880   0.243260
     7  Na   0.128446  -0.107958
 Sum of Mulliken charges =  -0.00000   1.00000

 Dipole moment (field-independent basis, Debye):
    X=             -0.9896    Y=              0.7666    Z=              0.0279  Tot=              1.2522
 Quadrupole moment (field-independent basis, Debye-Ang):
   XX=            -53.7638   YY=            -71.8785   ZZ=            -69.6840
   XY=             -2.2911   XZ=             -1.0981   YZ=              0.5821

 Normal termination of Gaussian 16 at Mon Nov 13 15:26:39 2023.
