 Gaussian 16, Revision B.01,
 Gaussian 16:  ES64L-G16RevB.01 20-Dec-2017

 -------------------------
 #P B3LYP/6-311+g(d) force
 -------------------------

 ------------------------------
 Gaussian input prepared by ASE
 ------------------------------
 Symbolic Z-matrix:
 Charge =  0 Multiplicity = 2

                         Standard orientation:
 ---------------------------------------------------------------------
 Center     Atomic      Atomic             Coordinates (Angstroms)
 Number     Number       Type             X           Y           Z
 ---------------------------------------------------------------------
      1         11           0       -0.199143   -1.478823   -0.799413
      2         11           0       -0.021497   -0.018160    1.807357
      3         11           0        2.385436   -1.448189    0.724636
      4         11           0        3.173203    0.993939   -0.834822
      5         11           0        0.216210    1.497721   -0.765012
      6         11           0       -2.393148    1.452592    0.710924
      7         11           0       -3.161061   -0.999080   -0.843670
 ---------------------------------------------------------------------

 SCF Done:  E(UB3LYP) =  -1136.09808539     A.U. after   29 cycles

 The electronic state is 2-A.
 Alpha  occ. eigenvalues --  -38.44813 -38.44808 -38.44105 -38.43994 -38.43993
 Alpha  occ. eigenvalues --  -38.43378 -38.43351  -2.20716  -2.20709  -2.20214
 Alpha  occ. eigenvalues --   -2.19991  -2.19987  -2.19445  -2.19414  -1.14413
 Alpha  occ. eigenvalues --   -1.14407  -1.14393  -1.14387  -1.14329  -1.14324
 Alpha  occ. eigenvalues --   -1.13996  -1.13980  -1.13794  -1.13685  -1.13664
 Alpha  occ. eigenvalues --   -1.13647  -1.13604  -1.13600  -1.13572  -1.13254
 Alpha  occ. eigenvalues --   -1.13095  -1.13073  -1.13053  -1.13015  -1.12983
 Alpha  occ. eigenvalues --   -0.20146  -0.14903  -0.11557  -0.11441
 Alpha virt. eigenvalues --   -0.07068  -0.04904  -0.04387  -0.03247  -0.02795
 Alpha virt. eigenvalues --   -0.02569  -0.02001  -0.00862  -0.00510   0.00077
 Alpha virt. eigenvalues --    0.00287   0.00452   0.00602   0.00791   0.00890

  Beta  occ. eigenvalues --  -38.44781 -38.44777 -38.44005 -38.43975 -38.43975
  Beta  occ. eigenvalues --  -38.43360 -38.43334  -2.20658  -2.20654  -2.20036
  Beta  occ. eigenvalues --   -2.19962  -2.19957  -2.19417  -2.19387  -1.14370
  Beta  occ. eigenvalues --   -1.14366  -1.14357  -1.14352  -1.14285  -1.14281
  Beta  occ. eigenvalues --   -1.13894  -1.13864  -1.13689  -1.13657  -1.13636
  Beta  occ. eigenvalues --   -1.13606  -1.13577  -1.13575  -1.13497  -1.13240
  Beta  occ. eigenvalues --   -1.13049  -1.13030  -1.13023  -1.12995  -1.12952
  Beta  occ. eigenvalues --   -0.19469  -0.14553  -0.11040
  Beta virt. eigenvalues --   -0.07732  -0.06856  -0.04774  -0.03672  -0.03044
  Beta virt. eigenvalues --   -0.02649  -0.01856  -0.01243  -0.00758  -0.00231
  Beta virt. eigenvalues --    0.00135   0.00294   0.00459   0.00700   0.00900

 Mulliken charges and spin densities:
               1          2
     1  Na  -0.840002   0.310172
     2  Na  -1.467917   0.029145
     3  Na   2.209241   0.183339
     4  Na  -0.618607  -0.004591
     5  Na  -0.895512   0.287855
     6  Na   2.240460   0.193638
     7  Na  -0.627664   0.000442
 Sum of Mulliken charges =  -0.00000   1.00000

 Dipole moment (field-independent basis, Debye):
    X=             -0.0018    Y=             -0.0153    Z=              0.1624  Tot=              0.1631
 Quadrupole moment (field-independent basis, Debye-Ang):
   XX=            -45.6494   YY=            -78.5593   ZZ=            -70.4924
   XY=             -1.7868   XZ=              0.0028   YZ=              0.0008

 Normal termination of Gaussian 16 at Mon Nov 13 16:52:00 2023.
