 Gaussian 16, Revision B.01,
 Gaussian 16:  ES64L-G16RevB.01 20-Dec-2017

 -------------------------
 #P B3LYP/6-311+g(d) force
 -------------------------

 ------------------------------
 Gaussian input prepared by ASE
 ------------------------------
 Symbolic Z-matrix:
 Charge =  0 Multiplicity = 2

                         Standard orientation:
 ---------------------------------------------------------------------
 Center     Atomic      Atomic             Coordinates (Angstroms)
 Number     Number       Type             X           Y           Z
 ---------------------------------------------------------------------
      1         11           0        0.779806    0.794394   -1.673218
      2         11           0        2.897231    1.451435    0.349695
      3         11           0        2.821063   -1.264870   -0.898852
      4         11           0        1.613309   -0.832324    1.815742
      5         11           0       -1.023358   -0.154004    0.537740
      6         11           0       -3.525781   -1.425622   -0.513341
      7         11           0       -3.562270    1.430991    0.382234
 ---------------------------------------------------------------------

 SCF Done:  E(UB3LYP) =  -1136.07872394     A.U. after   34 cycles

 The electronic state is 2-A.
 Alpha  occ. eigenvalues --  -38.46457 -38.45941 -38.45294 -38.44492 -38.43253
 Alpha  occ. eigenvalues --  -38.42301 -38.41647  -2.22324  -2.21911  -2.21197
 Alpha  occ. eigenvalues --   -2.20501  -2.19368  -2.18301  -2.17655  -1.16028
 Alpha  occ. eigenvalues --   -1.15999  -1.15941  -1.15635  -1.15575  -1.15527
 Alpha  occ. eigenvalues --   -1.14883  -1.14837  -1.14801  -1.14192  -1.14167
 Alpha  occ. eigenvalues --   -1.14087  -1.13091  -1.13037  -1.12986  -1.11988
 Alpha  occ. eigenvalues --   -1.11965  -1.11919  -1.11336  -1.11322  -1.11301
 Alpha  occ. eigenvalues --   -0.19120  -0.15858  -0.10390  -0.10222
 Alpha virt. eigenvalues --   -0.07759  -0.06303  -0.04185  -0.03572  -0.02599
 Alpha virt. eigenvalues --   -0.01787  -0.01544  -0.01298  -0.00747  -0.00562
 Alpha virt. eigenvalues --   -0.00087   0.00170   0.00357   0.00466   0.00516

  Beta  occ. eigenvalues --  -38.46450 -38.45929 -38.45247 -38.44435 -38.43198
  Beta  occ. eigenvalues --  -38.42278 -38.41634  -2.22318  -2.21894  -2.21110
  Beta  occ. eigenvalues --   -2.20395  -2.19274  -2.18265  -2.17638  -1.16031
  Beta  occ. eigenvalues --   -1.15968  -1.15925  -1.15627  -1.15529  -1.15511
  Beta  occ. eigenvalues --   -1.14824  -1.14774  -1.14741  -1.14127  -1.14081
  Beta  occ. eigenvalues --   -1.14014  -1.13036  -1.12945  -1.12908  -1.11971
  Beta  occ. eigenvalues --   -1.11946  -1.11852  -1.11332  -1.11317  -1.11238
  Beta  occ. eigenvalues --   -0.18409  -0.15356  -0.10010
  Beta virt. eigenvalues --   -0.07654  -0.06678  -0.05888  -0.03993  -0.02992
  Beta virt. eigenvalues --   -0.02485  -0.01565  -0.01246  -0.00973  -0.00386
  Beta virt. eigenvalues --   -0.00226   0.00150   0.00257   0.00429   0.00540

 Mulliken charges and spin densities:
               1          2
     1  Na  -0.207347  -0.128156
     2  Na   0.497324   0.275993
     3  Na   0.171156   0.485852
     4  Na  -0.218398  -0.034762
     5  Na  -2.280604   0.312692
     6  Na   1.067757   0.168042
     7  Na   0.970113  -0.079661
 Sum of Mulliken charges =   0.00000   1.00000

 Dipole moment (field-independent basis, Debye):
    X=             -1.9925    Y=              1.1518    Z=              0.1771  Tot=              2.3082
 Quadrupole moment (field-independent basis, Debye-Ang):
   XX=            -57.8999   YY=            -59.9832   ZZ=            -80.6131
   XY=             -0.5019   XZ=              1.9569   YZ=             13.8396

 Normal termination of Gaussian 16 at Mon Nov 13 17:35:58 2023.
