 Gaussian 16, Revision B.01,
 Gaussian 16:  ES64L-G16RevB.01 20-Dec-2017

 -------------------------
 #P B3LYP/6-311+g(d) force
 -------------------------

 ------------------------------
 Gaussian input prepared by ASE
 ------------------------------
 Symbolic Z-matrix:
 Charge =  0 Multiplicity = 2

                         Standard orientation:
 ---------------------------------------------------------------------
 Center     Atomic      Atomic             Coordinates (Angstroms)
 Number     Number       Type             X           Y           Z
 ---------------------------------------------------------------------
      1         11           0        1.058002   -0.771232    1.438374
      2         11           0       -0.509007   -1.104386   -1.094843
      3         11           0       -3.424210   -1.404638   -0.462219
      4         11           0       -1.704458    0.388334    1.210816
      5         11           0       -0.656649    2.866702   -0.129605
      6         11           0        1.598126    1.031039   -0.891494
      7         11           0        3.638195   -1.005819   -0.071029
 ---------------------------------------------------------------------

 SCF Done:  E(UB3LYP) =  -1136.10120590     A.U. after   21 cycles

 The electronic state is 2-A.
 Alpha  occ. eigenvalues --  -38.44939 -38.44307 -38.44233 -38.43973 -38.43509
 Alpha  occ. eigenvalues --  -38.43419 -38.42853  -2.20832  -2.20364  -2.20125
 Alpha  occ. eigenvalues --   -2.20055  -2.19611  -2.19517  -2.18760  -1.14551
 Alpha  occ. eigenvalues --   -1.14511  -1.14444  -1.14183  -1.14090  -1.13988
 Alpha  occ. eigenvalues --   -1.13831  -1.13771  -1.13744  -1.13730  -1.13703
 Alpha  occ. eigenvalues --   -1.13640  -1.13298  -1.13252  -1.13216  -1.13205
 Alpha  occ. eigenvalues --   -1.13151  -1.13138  -1.12441  -1.12405  -1.12377
 Alpha  occ. eigenvalues --   -0.19846  -0.14409  -0.12013  -0.11005
 Alpha virt. eigenvalues --   -0.06972  -0.04514  -0.04262  -0.03406  -0.02588
 Alpha virt. eigenvalues --   -0.02355  -0.02104  -0.01109  -0.00360   0.00054
 Alpha virt. eigenvalues --    0.00234   0.00497   0.00678   0.00805   0.00893

  Beta  occ. eigenvalues --  -38.44935 -38.44267 -38.44223 -38.43899 -38.43464
  Beta  occ. eigenvalues --  -38.43381 -38.42853  -2.20828  -2.20297  -2.20108
  Beta  occ. eigenvalues --   -2.19922  -2.19534  -2.19451  -2.18763  -1.14550
  Beta  occ. eigenvalues --   -1.14490  -1.14440  -1.14121  -1.14044  -1.13929
  Beta  occ. eigenvalues --   -1.13815  -1.13726  -1.13718  -1.13673  -1.13606
  Beta  occ. eigenvalues --   -1.13542  -1.13243  -1.13187  -1.13171  -1.13142
  Beta  occ. eigenvalues --   -1.13098  -1.13074  -1.12436  -1.12406  -1.12366
  Beta  occ. eigenvalues --   -0.19101  -0.14205  -0.11784
  Beta virt. eigenvalues --   -0.06976  -0.06806  -0.04424  -0.03801  -0.03028
  Beta virt. eigenvalues --   -0.02491  -0.01789  -0.01162  -0.01037  -0.00057
  Beta virt. eigenvalues --    0.00109   0.00236   0.00621   0.00826   0.00841

 Mulliken charges and spin densities:
               1          2
     1  Na  -0.428643   0.094424
     2  Na  -0.662846   0.447531
     3  Na   0.225257  -0.076733
     4  Na   0.100834   0.171251
     5  Na   0.023354   0.009586
     6  Na  -0.166473   0.308545
     7  Na   0.908517   0.045396
 Sum of Mulliken charges =  -0.00000   1.00000

 Dipole moment (field-independent basis, Debye):
    X=              0.4640    Y=             -0.2354    Z=             -0.0597  Tot=              0.5237
 Quadrupole moment (field-independent basis, Debye-Ang):
   XX=            -48.1665   YY=            -70.8450   ZZ=            -73.3746
   XY=             -2.7111   XZ=             -1.1658   YZ=              0.6896

 Normal termination of Gaussian 16 at Mon Nov 13 16:41:14 2023.
