 Gaussian 16, Revision B.01,
 Gaussian 16:  ES64L-G16RevB.01 20-Dec-2017

 -------------------------
 #P B3LYP/6-311+g(d) force
 -------------------------

 ------------------------------
 Gaussian input prepared by ASE
 ------------------------------
 Symbolic Z-matrix:
 Charge =  0 Multiplicity = 2

                         Standard orientation:
 ---------------------------------------------------------------------
 Center     Atomic      Atomic             Coordinates (Angstroms)
 Number     Number       Type             X           Y           Z
 ---------------------------------------------------------------------
      1         11           0        0.432748   -1.979994   -0.943927
      2         11           0        1.872133   -1.066739    1.525600
      3         11           0        2.823913   -0.187849   -1.173746
      4         11           0        1.537326    2.473872   -0.650779
      5         11           0       -0.124082    1.178707    1.487988
      6         11           0       -2.022193   -0.865526    0.377967
      7         11           0       -4.519846    0.447530   -0.623103
 ---------------------------------------------------------------------

 SCF Done:  E(UB3LYP) =  -1136.09993958     A.U. after   24 cycles

 The electronic state is 2-A.
 Alpha  occ. eigenvalues --  -38.45341 -38.45005 -38.44315 -38.43724 -38.43618
 Alpha  occ. eigenvalues --  -38.43607 -38.43204  -2.21147  -2.21005  -2.20323
 Alpha  occ. eigenvalues --   -2.19725  -2.19593  -2.19578  -2.19106  -1.14829
 Alpha  occ. eigenvalues --   -1.14781  -1.14770  -1.14722  -1.14701  -1.14620
 Alpha  occ. eigenvalues --   -1.14011  -1.13974  -1.13949  -1.13484  -1.13403
 Alpha  occ. eigenvalues --   -1.13387  -1.13369  -1.13244  -1.13227  -1.13197
 Alpha  occ. eigenvalues --   -1.13190  -1.13132  -1.12780  -1.12757  -1.12720
 Alpha  occ. eigenvalues --   -0.19334  -0.14120  -0.11797  -0.11675
 Alpha virt. eigenvalues --   -0.07209  -0.04296  -0.04188  -0.03593  -0.02840
 Alpha virt. eigenvalues --   -0.02649  -0.02278  -0.01063  -0.00516  -0.00097
 Alpha virt. eigenvalues --    0.00062   0.00172   0.00329   0.00778   0.00913

  Beta  occ. eigenvalues --  -38.45295 -38.44969 -38.44257 -38.43666 -38.43613
  Beta  occ. eigenvalues --  -38.43591 -38.43191  -2.21061  -2.20945  -2.20218
  Beta  occ. eigenvalues --   -2.19623  -2.19584  -2.19558  -2.19085  -1.14773
  Beta  occ. eigenvalues --   -1.14721  -1.14711  -1.14688  -1.14614  -1.14581
  Beta  occ. eigenvalues --   -1.13938  -1.13904  -1.13868  -1.13431  -1.13387
  Beta  occ. eigenvalues --   -1.13325  -1.13284  -1.13229  -1.13201  -1.13176
  Beta  occ. eigenvalues --   -1.13153  -1.13109  -1.12758  -1.12735  -1.12705
  Beta  occ. eigenvalues --   -0.18640  -0.13564  -0.11671
  Beta virt. eigenvalues --   -0.07881  -0.06863  -0.04041  -0.03709  -0.03492
  Beta virt. eigenvalues --   -0.02355  -0.02222  -0.01681  -0.00733  -0.00307
  Beta virt. eigenvalues --   -0.00021   0.00143   0.00265   0.00442   0.00813

 Mulliken charges and spin densities:
               1          2
     1  Na   0.059112  -0.009886
     2  Na   0.794232  -0.015774
     3  Na  -0.179908   0.420911
     4  Na   0.115559  -0.137711
     5  Na  -0.628297   0.412425
     6  Na  -0.407693   0.308158
     7  Na   0.246995   0.021878
 Sum of Mulliken charges =  -0.00000   1.00000

 Dipole moment (field-independent basis, Debye):
    X=             -0.4665    Y=              0.0720    Z=             -0.0746  Tot=              0.4779
 Quadrupole moment (field-independent basis, Debye-Ang):
   XX=            -53.9548   YY=            -74.8834   ZZ=            -66.9744
   XY=             -4.2347   XZ=              4.3689   YZ=             -2.9185

 Normal termination of Gaussian 16 at Mon Nov 13 15:48:24 2023.
