 Gaussian 16, Revision B.01,
 Gaussian 16:  ES64L-G16RevB.01 20-Dec-2017

 -------------------------
 #P B3LYP/6-311+g(d) force
 -------------------------

 ------------------------------
 Gaussian input prepared by ASE
 ------------------------------
 Symbolic Z-matrix:
 Charge =  0 Multiplicity = 2

                         Standard orientation:
 ---------------------------------------------------------------------
 Center     Atomic      Atomic             Coordinates (Angstroms)
 Number     Number       Type             X           Y           Z
 ---------------------------------------------------------------------
      1         11           0       -0.707091    3.761162   -0.745174
      2         11           0       -0.633062    0.835666   -0.094427
      3         11           0       -3.192500    0.204416    1.336126
      4         11           0       -2.054483   -1.755455   -0.618651
      5         11           0        0.531932   -3.199882   -0.136221
      6         11           0        1.945830   -0.602458   -0.655733
      7         11           0        4.109374    0.756552    0.914080
 ---------------------------------------------------------------------

 SCF Done:  E(UB3LYP) =  -1136.10248764     A.U. after   22 cycles

 The electronic state is 2-A.
 Alpha  occ. eigenvalues --  -38.44424 -38.44264 -38.44146 -38.44118 -38.44042
 Alpha  occ. eigenvalues --  -38.43565 -38.43522  -2.20243  -2.20162  -2.20040
 Alpha  occ. eigenvalues --   -2.20022  -2.19979  -2.19625  -2.19490  -1.13948
 Alpha  occ. eigenvalues --   -1.13919  -1.13875  -1.13863  -1.13858  -1.13853
 Alpha  occ. eigenvalues --   -1.13787  -1.13728  -1.13707  -1.13677  -1.13651
 Alpha  occ. eigenvalues --   -1.13618  -1.13604  -1.13591  -1.13546  -1.13377
 Alpha  occ. eigenvalues --   -1.13278  -1.13242  -1.13129  -1.13113  -1.13101
 Alpha  occ. eigenvalues --   -0.18201  -0.13803  -0.12950  -0.10608
 Alpha virt. eigenvalues --   -0.06158  -0.05487  -0.04418  -0.03366  -0.02654
 Alpha virt. eigenvalues --   -0.02083  -0.01741  -0.01333  -0.00624  -0.00539
 Alpha virt. eigenvalues --   -0.00105   0.00096   0.00501   0.00613   0.00798

  Beta  occ. eigenvalues --  -38.44360 -38.44247 -38.44062 -38.44056 -38.44037
  Beta  occ. eigenvalues --  -38.43564 -38.43520  -2.20132  -2.20124  -2.20027
  Beta  occ. eigenvalues --   -2.19920  -2.19824  -2.19627  -2.19494  -1.13897
  Beta  occ. eigenvalues --   -1.13875  -1.13840  -1.13822  -1.13792  -1.13777
  Beta  occ. eigenvalues --   -1.13763  -1.13709  -1.13645  -1.13622  -1.13578
  Beta  occ. eigenvalues --   -1.13559  -1.13498  -1.13486  -1.13483  -1.13376
  Beta  occ. eigenvalues --   -1.13275  -1.13220  -1.13137  -1.13121  -1.13054
  Beta  occ. eigenvalues --   -0.17902  -0.13015  -0.12301
  Beta virt. eigenvalues --   -0.07406  -0.05769  -0.05287  -0.04291  -0.02956
  Beta virt. eigenvalues --   -0.02345  -0.01777  -0.01480  -0.00907  -0.00395
  Beta virt. eigenvalues --   -0.00302   0.00114   0.00255   0.00544   0.00663

 Mulliken charges and spin densities:
               1          2
     1  Na   0.338097   0.057403
     2  Na  -1.871062   0.298103
     3  Na   0.924511   0.253296
     4  Na   0.067555   0.016998
     5  Na   0.920152   0.139868
     6  Na  -0.777179  -0.087733
     7  Na   0.397928   0.322065
 Sum of Mulliken charges =  -0.00000   1.00000

 Dipole moment (field-independent basis, Debye):
    X=             -0.5751    Y=             -0.1389    Z=              0.4676  Tot=              0.7541
 Quadrupole moment (field-independent basis, Debye-Ang):
   XX=            -67.4591   YY=            -59.6883   ZZ=            -68.4117
   XY=             -0.3286   XZ=              1.0955   YZ=              0.2577

 Normal termination of Gaussian 16 at Mon Nov 13 16:34:55 2023.
