 Gaussian 16, Revision B.01,
 Gaussian 16:  ES64L-G16RevB.01 20-Dec-2017

 -------------------------
 #P B3LYP/6-311+g(d) force
 -------------------------

 ------------------------------
 Gaussian input prepared by ASE
 ------------------------------
 Symbolic Z-matrix:
 Charge =  0 Multiplicity = 2

                         Standard orientation:
 ---------------------------------------------------------------------
 Center     Atomic      Atomic             Coordinates (Angstroms)
 Number     Number       Type             X           Y           Z
 ---------------------------------------------------------------------
      1         11           0       -0.586940   -0.074014   -1.286812
      2         11           0        1.791206    0.100989    1.498910
      3         11           0       -3.336163   -0.059100   -0.288370
      4         11           0       -1.005823   -0.242664    1.471061
      5         11           0        0.750048   -2.264239   -0.150074
      6         11           0        0.197853    2.272783    0.042319
      7         11           0        2.189819    0.266247   -1.287034
 ---------------------------------------------------------------------

 SCF Done:  E(UB3LYP) =  -1136.08645637     A.U. after   23 cycles

 The electronic state is 2-A.
 Alpha  occ. eigenvalues --  -38.44629 -38.44260 -38.44213 -38.43880 -38.43847
 Alpha  occ. eigenvalues --  -38.42521 -38.42482  -2.20537  -2.20398  -2.20355
 Alpha  occ. eigenvalues --   -2.20244  -2.20061  -2.18584  -2.18546  -1.14407
 Alpha  occ. eigenvalues --   -1.14320  -1.14273  -1.14250  -1.14181  -1.14118
 Alpha  occ. eigenvalues --   -1.14064  -1.13969  -1.13910  -1.13865  -1.13840
 Alpha  occ. eigenvalues --   -1.13744  -1.13652  -1.13599  -1.13597  -1.12318
 Alpha  occ. eigenvalues --   -1.12284  -1.12225  -1.12197  -1.12167  -1.12114
 Alpha  occ. eigenvalues --   -0.21112  -0.13852  -0.12506  -0.12001
 Alpha virt. eigenvalues --   -0.05918  -0.03969  -0.03572  -0.03428  -0.02987
 Alpha virt. eigenvalues --   -0.02750  -0.01664  -0.00442  -0.00334   0.00299
 Alpha virt. eigenvalues --    0.00592   0.00740   0.00939   0.01009   0.01063

  Beta  occ. eigenvalues --  -38.44625 -38.44212 -38.44149 -38.43817 -38.43782
  Beta  occ. eigenvalues --  -38.42510 -38.42470  -2.20530  -2.20307  -2.20250
  Beta  occ. eigenvalues --   -2.20135  -2.19949  -2.18570  -2.18531  -1.14359
  Beta  occ. eigenvalues --   -1.14270  -1.14230  -1.14165  -1.14115  -1.14108
  Beta  occ. eigenvalues --   -1.13994  -1.13903  -1.13833  -1.13800  -1.13767
  Beta  occ. eigenvalues --   -1.13671  -1.13567  -1.13522  -1.13496  -1.12311
  Beta  occ. eigenvalues --   -1.12279  -1.12179  -1.12153  -1.12139  -1.12109
  Beta  occ. eigenvalues --   -0.20279  -0.13698  -0.11662
  Beta virt. eigenvalues --   -0.08066  -0.05837  -0.03478  -0.03391  -0.03294
  Beta virt. eigenvalues --   -0.01957  -0.01896  -0.01530  -0.00312  -0.00126
  Beta virt. eigenvalues --    0.00335   0.00642   0.00893   0.00917   0.01016

 Mulliken charges and spin densities:
               1          2
     1  Na   0.254748   0.219775
     2  Na   0.916500   0.189954
     3  Na  -0.109954   0.132495
     4  Na  -0.019583   0.137439
     5  Na  -0.955888   0.345047
     6  Na  -1.026200   0.088097
     7  Na   0.940377  -0.112808
 Sum of Mulliken charges =  -0.00000   1.00000

 Dipole moment (field-independent basis, Debye):
    X=             -0.3824    Y=              0.0511    Z=              0.0344  Tot=              0.3874
 Quadrupole moment (field-independent basis, Debye-Ang):
   XX=            -54.0600   YY=            -73.4644   ZZ=            -66.3217
   XY=             -0.1520   XZ=              0.2798   YZ=              0.1526

 Normal termination of Gaussian 16 at Mon Nov 13 19:48:07 2023.
