 Gaussian 16, Revision B.01,
 Gaussian 16:  ES64L-G16RevB.01 20-Dec-2017

 -------------------------
 #P B3LYP/6-311+g(d) force
 -------------------------

 ------------------------------
 Gaussian input prepared by ASE
 ------------------------------
 Symbolic Z-matrix:
 Charge =  0 Multiplicity = 2

                         Standard orientation:
 ---------------------------------------------------------------------
 Center     Atomic      Atomic             Coordinates (Angstroms)
 Number     Number       Type             X           Y           Z
 ---------------------------------------------------------------------
      1         11           0        1.128887    1.557731   -0.355859
      2         11           0        3.717848    0.084680   -0.679532
      3         11           0        2.135895   -0.218965    1.842328
      4         11           0        1.127013   -1.422912   -0.712012
      5         11           0       -1.818658   -1.489158   -0.124101
      6         11           0       -1.867750    1.516058   -0.117821
      7         11           0       -4.423235   -0.027434    0.146998
 ---------------------------------------------------------------------

 SCF Done:  E(UB3LYP) =  -1136.08547673     A.U. after   29 cycles

 The electronic state is 2-A.
 Alpha  occ. eigenvalues --  -38.47106 -38.45400 -38.44345 -38.43179 -38.43101
 Alpha  occ. eigenvalues --  -38.43039 -38.42805  -2.23062  -2.21401  -2.20270
 Alpha  occ. eigenvalues --   -2.19166  -2.19132  -2.19087  -2.18894  -1.16790
 Alpha  occ. eigenvalues --   -1.16728  -1.16659  -1.15106  -1.15047  -1.14987
 Alpha  occ. eigenvalues --   -1.13963  -1.13912  -1.13876  -1.12952  -1.12919
 Alpha  occ. eigenvalues --   -1.12901  -1.12860  -1.12806  -1.12777  -1.12720
 Alpha  occ. eigenvalues --   -1.12674  -1.12654  -1.12561  -1.12517  -1.12486
 Alpha  occ. eigenvalues --   -0.19749  -0.15768  -0.11263  -0.10754
 Alpha virt. eigenvalues --   -0.07853  -0.05031  -0.04330  -0.03709  -0.02810
 Alpha virt. eigenvalues --   -0.01620  -0.01526  -0.01238  -0.01110  -0.00915
 Alpha virt. eigenvalues --    0.00103   0.00245   0.00310   0.00611   0.00843

  Beta  occ. eigenvalues --  -38.47090 -38.45349 -38.44263 -38.43159 -38.43082
  Beta  occ. eigenvalues --  -38.43010 -38.42772  -2.23038  -2.21306  -2.20118
  Beta  occ. eigenvalues --   -2.19138  -2.19088  -2.19061  -2.18842  -1.16781
  Beta  occ. eigenvalues --   -1.16670  -1.16646  -1.15050  -1.14970  -1.14925
  Beta  occ. eigenvalues --   -1.13871  -1.13805  -1.13771  -1.12928  -1.12864
  Beta  occ. eigenvalues --   -1.12823  -1.12813  -1.12796  -1.12751  -1.12708
  Beta  occ. eigenvalues --   -1.12658  -1.12582  -1.12532  -1.12484  -1.12404
  Beta  occ. eigenvalues --   -0.19034  -0.14988  -0.10472
  Beta virt. eigenvalues --   -0.07709  -0.07528  -0.04866  -0.03604  -0.03364
  Beta virt. eigenvalues --   -0.02650  -0.01476  -0.01343  -0.00821  -0.00595
  Beta virt. eigenvalues --   -0.00343   0.00213   0.00287   0.00445   0.00686

 Mulliken charges and spin densities:
               1          2
     1  Na  -0.865129  -0.121943
     2  Na   2.111246   0.600339
     3  Na   0.062793   0.156654
     4  Na  -0.448712  -0.098790
     5  Na  -0.864764   0.067622
     6  Na  -0.858097   0.023344
     7  Na   0.862663   0.372775
 Sum of Mulliken charges =  -0.00000   1.00000

 Dipole moment (field-independent basis, Debye):
    X=              1.1515    Y=             -0.1818    Z=              0.9081  Tot=              1.4777
 Quadrupole moment (field-independent basis, Debye-Ang):
   XX=            -55.7435   YY=            -85.0780   ZZ=            -58.8641
   XY=             -0.2334   XZ=             -1.2167   YZ=             -0.8882

 Normal termination of Gaussian 16 at Mon Nov 13 17:36:55 2023.
