 Gaussian 16, Revision B.01,
 Gaussian 16:  ES64L-G16RevB.01 20-Dec-2017

 -------------------------
 #P B3LYP/6-311+g(d) force
 -------------------------

 ------------------------------
 Gaussian input prepared by ASE
 ------------------------------
 Symbolic Z-matrix:
 Charge =  0 Multiplicity = 2

                         Standard orientation:
 ---------------------------------------------------------------------
 Center     Atomic      Atomic             Coordinates (Angstroms)
 Number     Number       Type             X           Y           Z
 ---------------------------------------------------------------------
      1         11           0       -0.346319    0.153189   -1.338201
      2         11           0       -0.088131   -2.479778    0.086132
      3         11           0        4.256900    0.335897   -0.545791
      4         11           0        1.669265   -0.200893    0.862934
      5         11           0       -0.956705    2.636038    0.243103
      6         11           0       -1.276380   -0.094048    1.470063
      7         11           0       -3.258628   -0.350405   -0.778240
 ---------------------------------------------------------------------

 SCF Done:  E(UB3LYP) =  -1136.09766668     A.U. after   26 cycles

 The electronic state is 2-A.
 Alpha  occ. eigenvalues --  -38.44904 -38.44757 -38.44421 -38.43590 -38.42952
 Alpha  occ. eigenvalues --  -38.42895 -38.42851  -2.20713  -2.20674  -2.20589
 Alpha  occ. eigenvalues --   -2.19804  -2.18990  -2.18875  -2.18853  -1.14459
 Alpha  occ. eigenvalues --   -1.14406  -1.14390  -1.14352  -1.14338  -1.14332
 Alpha  occ. eigenvalues --   -1.14250  -1.14216  -1.14151  -1.13546  -1.13449
 Alpha  occ. eigenvalues --   -1.13414  -1.12783  -1.12641  -1.12631  -1.12578
 Alpha  occ. eigenvalues --   -1.12544  -1.12523  -1.12487  -1.12459  -1.12403
 Alpha  occ. eigenvalues --   -0.19927  -0.13790  -0.11904  -0.11137
 Alpha virt. eigenvalues --   -0.07219  -0.04080  -0.03901  -0.03213  -0.02646
 Alpha virt. eigenvalues --   -0.02180  -0.02046  -0.00917  -0.00704  -0.00121
 Alpha virt. eigenvalues --    0.00014   0.00271   0.00419   0.00814   0.01043

  Beta  occ. eigenvalues --  -38.44854 -38.44714 -38.44394 -38.43529 -38.42943
  Beta  occ. eigenvalues --  -38.42864 -38.42840  -2.20621  -2.20597  -2.20542
  Beta  occ. eigenvalues --   -2.19699  -2.18945  -2.18862  -2.18838  -1.14413
  Beta  occ. eigenvalues --   -1.14347  -1.14323  -1.14298  -1.14274  -1.14269
  Beta  occ. eigenvalues --   -1.14215  -1.14172  -1.14109  -1.13465  -1.13355
  Beta  occ. eigenvalues --   -1.13335  -1.12748  -1.12612  -1.12574  -1.12551
  Beta  occ. eigenvalues --   -1.12519  -1.12509  -1.12458  -1.12446  -1.12384
  Beta  occ. eigenvalues --   -0.19250  -0.13268  -0.11652
  Beta virt. eigenvalues --   -0.07377  -0.06850  -0.04060  -0.03419  -0.03066
  Beta virt. eigenvalues --   -0.02348  -0.01684  -0.01218  -0.00675  -0.00502
  Beta virt. eigenvalues --    0.00004   0.00088   0.00332   0.00550   0.00841

 Mulliken charges and spin densities:
               1          2
     1  Na  -1.129762   0.494299
     2  Na   0.282830   0.111928
     3  Na   0.064371   0.202589
     4  Na   0.235690   0.043327
     5  Na   0.078695   0.001535
     6  Na  -0.133594   0.062587
     7  Na   0.601769   0.083736
 Sum of Mulliken charges =  -0.00000   1.00000

 Dipole moment (field-independent basis, Debye):
    X=             -0.4019    Y=             -0.0494    Z=             -0.1176  Tot=              0.4217
 Quadrupole moment (field-independent basis, Debye-Ang):
   XX=            -53.0910   YY=            -70.0647   ZZ=            -69.3771
   XY=              0.8018   XZ=             -2.4508   YZ=             -0.0964

 Normal termination of Gaussian 16 at Mon Nov 13 18:53:49 2023.
