 Gaussian 16, Revision B.01,
 Gaussian 16:  ES64L-G16RevB.01 20-Dec-2017

 -------------------------
 #P B3LYP/6-311+g(d) force
 -------------------------

 ------------------------------
 Gaussian input prepared by ASE
 ------------------------------
 Symbolic Z-matrix:
 Charge =  0 Multiplicity = 2

                         Standard orientation:
 ---------------------------------------------------------------------
 Center     Atomic      Atomic             Coordinates (Angstroms)
 Number     Number       Type             X           Y           Z
 ---------------------------------------------------------------------
      1         11           0       -0.162616   -0.390688   -1.080406
      2         11           0        0.791597   -0.786652    1.733612
      3         11           0        2.499938   -1.669501   -0.566803
      4         11           0        2.117230    1.252197   -0.028252
      5         11           0       -0.516278    2.553522   -0.640565
      6         11           0       -1.832180    0.583230    1.206674
      7         11           0       -2.897691   -1.542108   -0.624260
 ---------------------------------------------------------------------

 SCF Done:  E(UB3LYP) =  -1136.10274387     A.U. after   21 cycles

 The electronic state is 2-A.
 Alpha  occ. eigenvalues --  -38.44088 -38.43906 -38.43881 -38.43691 -38.43670
 Alpha  occ. eigenvalues --  -38.43127 -38.42860  -2.19978  -2.19973  -2.19891
 Alpha  occ. eigenvalues --   -2.19769  -2.19756  -2.19418  -2.18847  -1.13834
 Alpha  occ. eigenvalues --   -1.13759  -1.13732  -1.13669  -1.13620  -1.13611
 Alpha  occ. eigenvalues --   -1.13582  -1.13550  -1.13499  -1.13475  -1.13458
 Alpha  occ. eigenvalues --   -1.13384  -1.13369  -1.13332  -1.13319  -1.13087
 Alpha  occ. eigenvalues --   -1.13045  -1.13006  -1.12516  -1.12490  -1.12452
 Alpha  occ. eigenvalues --   -0.20333  -0.14076  -0.12191  -0.11504
 Alpha virt. eigenvalues --   -0.05617  -0.04963  -0.03980  -0.03513  -0.02587
 Alpha virt. eigenvalues --   -0.02425  -0.01528  -0.00903  -0.00199   0.00308
 Alpha virt. eigenvalues --    0.00420   0.00563   0.00830   0.00868   0.00977

  Beta  occ. eigenvalues --  -38.44075 -38.43893 -38.43799 -38.43678 -38.43631
  Beta  occ. eigenvalues --  -38.43076 -38.42851  -2.19956  -2.19873  -2.19821
  Beta  occ. eigenvalues --   -2.19751  -2.19690  -2.19329  -2.18833  -1.13787
  Beta  occ. eigenvalues --   -1.13724  -1.13657  -1.13640  -1.13569  -1.13566
  Beta  occ. eigenvalues --   -1.13554  -1.13514  -1.13464  -1.13430  -1.13395
  Beta  occ. eigenvalues --   -1.13325  -1.13319  -1.13306  -1.13254  -1.13010
  Beta  occ. eigenvalues --   -1.12980  -1.12938  -1.12504  -1.12476  -1.12427
  Beta  occ. eigenvalues --   -0.19538  -0.13838  -0.11956
  Beta virt. eigenvalues --   -0.07346  -0.05522  -0.04852  -0.03627  -0.03011
  Beta virt. eigenvalues --   -0.01979  -0.01481  -0.01359  -0.00814   0.00035
  Beta virt. eigenvalues --    0.00349   0.00416   0.00616   0.00838   0.00941

 Mulliken charges and spin densities:
               1          2
     1  Na  -1.232173   0.143053
     2  Na  -0.505620   0.174432
     3  Na   0.996556   0.212967
     4  Na   0.347992   0.225958
     5  Na  -0.002001   0.036428
     6  Na   0.763825   0.122845
     7  Na  -0.368580   0.084317
 Sum of Mulliken charges =  -0.00000   1.00000

 Dipole moment (field-independent basis, Debye):
    X=              0.0653    Y=             -0.3362    Z=              0.0290  Tot=              0.3437
 Quadrupole moment (field-independent basis, Debye-Ang):
   XX=            -55.8211   YY=            -67.5355   ZZ=            -70.2602
   XY=             -0.6737   XZ=             -0.3425   YZ=              1.4602

 Normal termination of Gaussian 16 at Mon Nov 13 16:47:02 2023.
