 Gaussian 16, Revision B.01,
 Gaussian 16:  ES64L-G16RevB.01 20-Dec-2017

 -------------------------
 #P B3LYP/6-311+g(d) force
 -------------------------

 ------------------------------
 Gaussian input prepared by ASE
 ------------------------------
 Symbolic Z-matrix:
 Charge =  0 Multiplicity = 2

                         Standard orientation:
 ---------------------------------------------------------------------
 Center     Atomic      Atomic             Coordinates (Angstroms)
 Number     Number       Type             X           Y           Z
 ---------------------------------------------------------------------
      1         11           0        0.240174    0.004246   -1.104578
      2         11           0       -2.200435    1.575234   -0.334637
      3         11           0        2.011675    2.336104   -0.433398
      4         11           0        0.076613    1.274351    1.599530
      5         11           0       -2.360398   -1.405499   -0.601794
      6         11           0       -0.078779   -1.714244    1.323968
      7         11           0        2.311149   -2.070191   -0.449091
 ---------------------------------------------------------------------

 SCF Done:  E(UB3LYP) =  -1136.10689071     A.U. after   18 cycles

 The electronic state is 2-A.
 Alpha  occ. eigenvalues --  -38.43993 -38.43981 -38.43894 -38.43782 -38.43421
 Alpha  occ. eigenvalues --  -38.43322 -38.42814  -2.19881  -2.19875  -2.19870
 Alpha  occ. eigenvalues --   -2.19762  -2.19516  -2.19409  -2.19119  -1.13680
 Alpha  occ. eigenvalues --   -1.13628  -1.13625  -1.13591  -1.13564  -1.13562
 Alpha  occ. eigenvalues --   -1.13516  -1.13497  -1.13479  -1.13463  -1.13419
 Alpha  occ. eigenvalues --   -1.13325  -1.13311  -1.13147  -1.13097  -1.13082
 Alpha  occ. eigenvalues --   -1.12995  -1.12968  -1.12776  -1.12724  -1.12711
 Alpha  occ. eigenvalues --   -0.20048  -0.13074  -0.12935  -0.11277
 Alpha virt. eigenvalues --   -0.05461  -0.05032  -0.03774  -0.03247  -0.03065
 Alpha virt. eigenvalues --   -0.02363  -0.01340  -0.01217  -0.00122   0.00346
 Alpha virt. eigenvalues --    0.00447   0.00514   0.00716   0.00966   0.01085

  Beta  occ. eigenvalues --  -38.43985 -38.43972 -38.43882 -38.43767 -38.43350
  Beta  occ. eigenvalues --  -38.43269 -38.42763  -2.19869  -2.19858  -2.19855
  Beta  occ. eigenvalues --   -2.19738  -2.19388  -2.19316  -2.19032  -1.13665
  Beta  occ. eigenvalues --   -1.13617  -1.13615  -1.13561  -1.13537  -1.13532
  Beta  occ. eigenvalues --   -1.13488  -1.13481  -1.13472  -1.13456  -1.13373
  Beta  occ. eigenvalues --   -1.13300  -1.13239  -1.13060  -1.13019  -1.13008
  Beta  occ. eigenvalues --   -1.12937  -1.12871  -1.12696  -1.12653  -1.12651
  Beta  occ. eigenvalues --   -0.19280  -0.12798  -0.12738
  Beta virt. eigenvalues --   -0.07135  -0.05421  -0.04944  -0.03663  -0.02599
  Beta virt. eigenvalues --   -0.02361  -0.01318  -0.01203  -0.01158   0.00110
  Beta virt. eigenvalues --    0.00393   0.00443   0.00522   0.00730   0.01063

 Mulliken charges and spin densities:
               1          2
     1  Na  -1.203664  -0.183236
     2  Na   0.150360   0.193973
     3  Na   0.158825   0.112588
     4  Na   0.398689   0.220011
     5  Na   0.384588   0.204295
     6  Na   0.189330   0.264623
     7  Na  -0.078129   0.187746
 Sum of Mulliken charges =  -0.00000   1.00000

 Dipole moment (field-independent basis, Debye):
    X=              0.2241    Y=              0.1336    Z=             -0.0915  Tot=              0.2765
 Quadrupole moment (field-independent basis, Debye-Ang):
   XX=            -58.9225   YY=            -61.6955   ZZ=            -71.8192
   XY=              0.1765   XZ=             -0.7462   YZ=             -0.2435

 Normal termination of Gaussian 16 at Mon Nov 13 18:47:44 2023.
