 Gaussian 16, Revision B.01,
 Gaussian 16:  ES64L-G16RevB.01 20-Dec-2017

 -------------------------
 #P B3LYP/6-311+g(d) force
 -------------------------

 ------------------------------
 Gaussian input prepared by ASE
 ------------------------------
 Symbolic Z-matrix:
 Charge =  0 Multiplicity = 2

                         Standard orientation:
 ---------------------------------------------------------------------
 Center     Atomic      Atomic             Coordinates (Angstroms)
 Number     Number       Type             X           Y           Z
 ---------------------------------------------------------------------
      1         11           0       -2.077204   -1.193767   -1.221824
      2         11           0        0.402370   -2.411398   -0.048377
      3         11           0        4.673986   -0.259796   -0.175608
      4         11           0        1.916775   -0.030234    0.974346
      5         11           0        0.852885    2.495051   -0.251723
      6         11           0       -2.035864    1.686119   -0.383611
      7         11           0       -3.732948   -0.285975    1.106797
 ---------------------------------------------------------------------

 SCF Done:  E(UB3LYP) =  -1136.10250379     A.U. after   21 cycles

 The electronic state is 2-A.
 Alpha  occ. eigenvalues --  -38.45009 -38.44966 -38.44448 -38.43986 -38.43531
 Alpha  occ. eigenvalues --  -38.43410 -38.43140  -2.20878  -2.20843  -2.20422
 Alpha  occ. eigenvalues --   -2.19951  -2.19509  -2.19303  -2.19033  -1.14591
 Alpha  occ. eigenvalues --   -1.14531  -1.14525  -1.14483  -1.14464  -1.14451
 Alpha  occ. eigenvalues --   -1.14113  -1.14092  -1.14061  -1.13668  -1.13629
 Alpha  occ. eigenvalues --   -1.13609  -1.13209  -1.13186  -1.13158  -1.12967
 Alpha  occ. eigenvalues --   -1.12961  -1.12905  -1.12704  -1.12667  -1.12651
 Alpha  occ. eigenvalues --   -0.18194  -0.14865  -0.11998  -0.10999
 Alpha virt. eigenvalues --   -0.06674  -0.05064  -0.04164  -0.03694  -0.03458
 Alpha virt. eigenvalues --   -0.02008  -0.01436  -0.01172  -0.00620  -0.00338
 Alpha virt. eigenvalues --   -0.00248  -0.00187   0.00414   0.00761   0.00795

  Beta  occ. eigenvalues --  -38.44911 -38.44897 -38.44438 -38.43986 -38.43521
  Beta  occ. eigenvalues --  -38.43378 -38.43122  -2.20751  -2.20660  -2.20410
  Beta  occ. eigenvalues --   -2.19958  -2.19498  -2.19245  -2.19004  -1.14515
  Beta  occ. eigenvalues --   -1.14444  -1.14405  -1.14390  -1.14339  -1.14327
  Beta  occ. eigenvalues --   -1.14112  -1.14072  -1.14013  -1.13679  -1.13623
  Beta  occ. eigenvalues --   -1.13576  -1.13192  -1.13164  -1.13136  -1.12933
  Beta  occ. eigenvalues --   -1.12910  -1.12871  -1.12687  -1.12639  -1.12629
  Beta  occ. eigenvalues --   -0.17661  -0.14065  -0.11649
  Beta virt. eigenvalues --   -0.07529  -0.06240  -0.05045  -0.03940  -0.03228
  Beta virt. eigenvalues --   -0.03018  -0.01714  -0.01018  -0.00801  -0.00269
  Beta virt. eigenvalues --   -0.00131  -0.00126   0.00008   0.00505   0.00811

 Mulliken charges and spin densities:
               1          2
     1  Na   0.228093   0.178595
     2  Na  -0.128258   0.046932
     3  Na   0.157304   0.496499
     4  Na  -0.278146  -0.086777
     5  Na  -0.159262   0.144570
     6  Na  -0.072800  -0.078870
     7  Na   0.253070   0.299052
 Sum of Mulliken charges =  -0.00000   1.00000

 Dipole moment (field-independent basis, Debye):
    X=             -0.1803    Y=             -0.4328    Z=              0.0132  Tot=              0.4690
 Quadrupole moment (field-independent basis, Debye-Ang):
   XX=            -60.7158   YY=            -75.5070   ZZ=            -63.9714
   XY=              1.6214   XZ=             -4.5202   YZ=             -0.8139

 Normal termination of Gaussian 16 at Mon Nov 13 15:07:17 2023.
