 Gaussian 16, Revision B.01,
 Gaussian 16:  ES64L-G16RevB.01 20-Dec-2017

 -------------------------
 #P B3LYP/6-311+g(d) force
 -------------------------

 ------------------------------
 Gaussian input prepared by ASE
 ------------------------------
 Symbolic Z-matrix:
 Charge =  0 Multiplicity = 2

                         Standard orientation:
 ---------------------------------------------------------------------
 Center     Atomic      Atomic             Coordinates (Angstroms)
 Number     Number       Type             X           Y           Z
 ---------------------------------------------------------------------
      1         11           0       -1.126411    0.002717    1.660971
      2         11           0        0.143530   -2.344229    0.283774
      3         11           0        4.217647   -0.001219   -0.354368
      4         11           0        1.570211    0.875448    0.658108
      5         11           0       -1.554188    2.346904   -0.165262
      6         11           0       -0.281188    0.002024   -1.544313
      7         11           0       -2.969602   -0.881644   -0.538910
 ---------------------------------------------------------------------

 SCF Done:  E(UB3LYP) =  -1136.10437962     A.U. after   25 cycles

 The electronic state is 2-A.
 Alpha  occ. eigenvalues --  -38.45478 -38.44677 -38.44180 -38.43418 -38.43048
 Alpha  occ. eigenvalues --  -38.42830 -38.42541  -2.21270  -2.20631  -2.20309
 Alpha  occ. eigenvalues --   -2.19587  -2.19088  -2.18789  -2.18511  -1.14977
 Alpha  occ. eigenvalues --   -1.14910  -1.14892  -1.14378  -1.14343  -1.14195
 Alpha  occ. eigenvalues --   -1.14041  -1.13950  -1.13912  -1.13334  -1.13231
 Alpha  occ. eigenvalues --   -1.13198  -1.12810  -1.12755  -1.12657  -1.12511
 Alpha  occ. eigenvalues --   -1.12459  -1.12351  -1.12209  -1.12178  -1.12113
 Alpha  occ. eigenvalues --   -0.20018  -0.13768  -0.11800  -0.11226
 Alpha virt. eigenvalues --   -0.07355  -0.04046  -0.03589  -0.03270  -0.02659
 Alpha virt. eigenvalues --   -0.02379  -0.02307  -0.00940  -0.00550  -0.00072
 Alpha virt. eigenvalues --    0.00123   0.00330   0.00449   0.00834   0.01000

  Beta  occ. eigenvalues --  -38.45470 -38.44650 -38.44124 -38.43334 -38.43022
  Beta  occ. eigenvalues --  -38.42816 -38.42533  -2.21254  -2.20584  -2.20210
  Beta  occ. eigenvalues --   -2.19435  -2.19048  -2.18768  -2.18502  -1.14969
  Beta  occ. eigenvalues --   -1.14897  -1.14880  -1.14346  -1.14281  -1.14164
  Beta  occ. eigenvalues --   -1.13960  -1.13881  -1.13840  -1.13223  -1.13126
  Beta  occ. eigenvalues --   -1.13086  -1.12788  -1.12671  -1.12637  -1.12501
  Beta  occ. eigenvalues --   -1.12406  -1.12342  -1.12206  -1.12155  -1.12088
  Beta  occ. eigenvalues --   -0.19245  -0.13502  -0.11512
  Beta virt. eigenvalues --   -0.07302  -0.07010  -0.03993  -0.03447  -0.02920
  Beta virt. eigenvalues --   -0.02472  -0.01622  -0.01288  -0.00832  -0.00311
  Beta virt. eigenvalues --   -0.00003   0.00160   0.00344   0.00612   0.00861

 Mulliken charges and spin densities:
               1          2
     1  Na   0.303675   0.419413
     2  Na  -0.164652  -0.130890
     3  Na   0.211452   0.031717
     4  Na  -0.247875  -0.054886
     5  Na  -0.085146  -0.058055
     6  Na  -0.205229   0.802063
     7  Na   0.187776  -0.009362
 Sum of Mulliken charges =  -0.00000   1.00000

 Dipole moment (field-independent basis, Debye):
    X=              0.4311    Y=             -0.4294    Z=             -0.1644  Tot=              0.6303
 Quadrupole moment (field-independent basis, Debye-Ang):
   XX=            -46.4713   YY=            -72.6179   ZZ=            -71.4196
   XY=             -1.3843   XZ=             -1.7289   YZ=             -0.0157

 Normal termination of Gaussian 16 at Mon Nov 13 18:35:19 2023.
