 Gaussian 16, Revision B.01,
 Gaussian 16:  ES64L-G16RevB.01 20-Dec-2017

 -------------------------
 #P B3LYP/6-311+g(d) force
 -------------------------

 ------------------------------
 Gaussian input prepared by ASE
 ------------------------------
 Symbolic Z-matrix:
 Charge =  0 Multiplicity = 2

                         Standard orientation:
 ---------------------------------------------------------------------
 Center     Atomic      Atomic             Coordinates (Angstroms)
 Number     Number       Type             X           Y           Z
 ---------------------------------------------------------------------
      1         11           0       -3.418155   -1.808958   -0.194452
      2         11           0       -0.894594   -0.189684   -0.213801
      3         11           0       -2.011857    2.535545    0.343394
      4         11           0        0.808649    2.253259   -0.620156
      5         11           0        3.023355    0.275529   -0.163705
      6         11           0        1.165122   -1.002035    1.818866
      7         11           0        1.327479   -2.063656   -0.970145
 ---------------------------------------------------------------------

 SCF Done:  E(UB3LYP) =  -1136.10101533     A.U. after   23 cycles

 The electronic state is 2-A.
 Alpha  occ. eigenvalues --  -38.44841 -38.44536 -38.44434 -38.44393 -38.43554
 Alpha  occ. eigenvalues --  -38.43292 -38.42780  -2.20623  -2.20530  -2.20411
 Alpha  occ. eigenvalues --   -2.20273  -2.19574  -2.19271  -2.18967  -1.14325
 Alpha  occ. eigenvalues --   -1.14293  -1.14273  -1.14252  -1.14222  -1.14191
 Alpha  occ. eigenvalues --   -1.14132  -1.14058  -1.14007  -1.13965  -1.13917
 Alpha  occ. eigenvalues --   -1.13898  -1.13279  -1.13186  -1.13165  -1.13014
 Alpha  occ. eigenvalues --   -1.12928  -1.12877  -1.12645  -1.12624  -1.12574
 Alpha  occ. eigenvalues --   -0.19440  -0.13783  -0.12501  -0.10278
 Alpha virt. eigenvalues --   -0.06644  -0.05756  -0.04113  -0.03077  -0.02467
 Alpha virt. eigenvalues --   -0.02141  -0.01693  -0.01354  -0.00333  -0.00084
 Alpha virt. eigenvalues --   -0.00031   0.00237   0.00608   0.00672   0.00859

  Beta  occ. eigenvalues --  -38.44846 -38.44511 -38.44404 -38.44392 -38.43461
  Beta  occ. eigenvalues --  -38.43276 -38.42758  -2.20633  -2.20491  -2.20359
  Beta  occ. eigenvalues --   -2.20273  -2.19403  -2.19243  -2.18934  -1.14332
  Beta  occ. eigenvalues --   -1.14275  -1.14272  -1.14259  -1.14201  -1.14103
  Beta  occ. eigenvalues --   -1.14099  -1.14007  -1.13989  -1.13928  -1.13919
  Beta  occ. eigenvalues --   -1.13891  -1.13167  -1.13071  -1.13041  -1.12998
  Beta  occ. eigenvalues --   -1.12913  -1.12829  -1.12632  -1.12561  -1.12533
  Beta  occ. eigenvalues --   -0.18698  -0.13607  -0.12284
  Beta virt. eigenvalues --   -0.06613  -0.06182  -0.05550  -0.04016  -0.02503
  Beta virt. eigenvalues --   -0.02187  -0.01753  -0.01327  -0.00817  -0.00291
  Beta virt. eigenvalues --    0.00026   0.00185   0.00348   0.00693   0.00777

 Mulliken charges and spin densities:
               1          2
     1  Na  -0.010201  -0.238082
     2  Na  -2.542856   0.288015
     3  Na   1.489412   0.094650
     4  Na   0.702602   0.078565
     5  Na   1.282713   0.405707
     6  Na  -0.192181   0.269947
     7  Na  -0.729489   0.101198
 Sum of Mulliken charges =  -0.00000   1.00000

 Dipole moment (field-independent basis, Debye):
    X=             -0.5277    Y=             -0.0873    Z=              0.2293  Tot=              0.5820
 Quadrupole moment (field-independent basis, Debye-Ang):
   XX=            -51.7488   YY=            -63.7193   ZZ=            -75.6991
   XY=             -0.7792   XZ=             -1.7081   YZ=              2.0700

 Normal termination of Gaussian 16 at Mon Nov 13 18:19:39 2023.
