 Gaussian 16, Revision B.01,
 Gaussian 16:  ES64L-G16RevB.01 20-Dec-2017

 -------------------------
 #P B3LYP/6-311+g(d) force
 -------------------------

 ------------------------------
 Gaussian input prepared by ASE
 ------------------------------
 Symbolic Z-matrix:
 Charge =  0 Multiplicity = 2

                         Standard orientation:
 ---------------------------------------------------------------------
 Center     Atomic      Atomic             Coordinates (Angstroms)
 Number     Number       Type             X           Y           Z
 ---------------------------------------------------------------------
      1         11           0       -0.212800    0.686146   -1.605136
      2         11           0       -0.102872   -1.700069   -0.784644
      3         11           0        2.275882   -0.996294    0.142652
      4         11           0        1.687672    1.584552   -0.016921
      5         11           0       -0.159548   -0.800709    1.664966
      6         11           0       -1.025069    1.708738    0.711274
      7         11           0       -2.463265   -0.482363   -0.112190
 ---------------------------------------------------------------------

 SCF Done:  E(UB3LYP) =  -1136.04026822     A.U. after   20 cycles

 The electronic state is 2-A.
 Alpha  occ. eigenvalues --  -38.45078 -38.44616 -38.44504 -38.44352 -38.44131
 Alpha  occ. eigenvalues --  -38.44059 -38.44002  -2.21481  -2.20997  -2.20785
 Alpha  occ. eigenvalues --   -2.20510  -2.20325  -2.20258  -2.20218  -1.15567
 Alpha  occ. eigenvalues --   -1.15358  -1.15148  -1.15078  -1.14840  -1.14569
 Alpha  occ. eigenvalues --   -1.14491  -1.14391  -1.14370  -1.14212  -1.14181
 Alpha  occ. eigenvalues --   -1.14094  -1.14048  -1.14013  -1.13898  -1.13867
 Alpha  occ. eigenvalues --   -1.13825  -1.13809  -1.13750  -1.13673  -1.13594
 Alpha  occ. eigenvalues --   -0.22428  -0.14210  -0.13016  -0.12721
 Alpha virt. eigenvalues --   -0.05305  -0.04133  -0.04001  -0.03972  -0.03238
 Alpha virt. eigenvalues --   -0.02966  -0.01028  -0.00298  -0.00133   0.00307
 Alpha virt. eigenvalues --    0.00874   0.00972   0.01096   0.01215   0.01292

  Beta  occ. eigenvalues --  -38.44991 -38.44573 -38.44422 -38.44342 -38.44116
  Beta  occ. eigenvalues --  -38.44047 -38.43971  -2.21328  -2.20922  -2.20642
  Beta  occ. eigenvalues --   -2.20497  -2.20301  -2.20231  -2.20183  -1.15464
  Beta  occ. eigenvalues --   -1.15257  -1.15046  -1.15002  -1.14795  -1.14471
  Beta  occ. eigenvalues --   -1.14461  -1.14322  -1.14293  -1.14168  -1.14108
  Beta  occ. eigenvalues --   -1.14066  -1.13992  -1.13982  -1.13859  -1.13821
  Beta  occ. eigenvalues --   -1.13785  -1.13728  -1.13709  -1.13659  -1.13576
  Beta  occ. eigenvalues --   -0.21563  -0.13805  -0.12600
  Beta virt. eigenvalues --   -0.08446  -0.05308  -0.04112  -0.03914  -0.02964
  Beta virt. eigenvalues --   -0.02383  -0.01858  -0.00955  -0.00267   0.00026
  Beta virt. eigenvalues --    0.00336   0.00894   0.00972   0.01130   0.01210

 Mulliken charges and spin densities:
               1          2
     1  Na  -0.177677   0.298929
     2  Na  -0.008451   0.073995
     3  Na   0.353998   0.021671
     4  Na  -0.194897   0.109262
     5  Na  -0.224608   0.472693
     6  Na   0.348397   0.192136
     7  Na  -0.096761  -0.168688
 Sum of Mulliken charges =  -0.00000   1.00000

 Dipole moment (field-independent basis, Debye):
    X=              0.0214    Y=              0.0618    Z=              0.3300  Tot=              0.3364
 Quadrupole moment (field-independent basis, Debye-Ang):
   XX=            -60.4962   YY=            -72.2973   ZZ=            -66.9264
   XY=              0.1966   XZ=              0.1883   YZ=              1.1969

 Normal termination of Gaussian 16 at Mon Nov 13 20:42:39 2023.
