 Gaussian 16, Revision B.01,
 Gaussian 16:  ES64L-G16RevB.01 20-Dec-2017

 -------------------------
 #P B3LYP/6-311+g(d) force
 -------------------------

 ------------------------------
 Gaussian input prepared by ASE
 ------------------------------
 Symbolic Z-matrix:
 Charge =  0 Multiplicity = 2

                         Standard orientation:
 ---------------------------------------------------------------------
 Center     Atomic      Atomic             Coordinates (Angstroms)
 Number     Number       Type             X           Y           Z
 ---------------------------------------------------------------------
      1         11           0       -2.066104    0.967018   -0.859866
      2         11           0        0.168698    2.810685   -0.103097
      3         11           0        3.710268   -0.331647   -0.413008
      4         11           0        0.723267   -0.100000   -0.583025
      5         11           0       -0.799733    0.757746    1.855077
      6         11           0       -0.210592   -2.150967    1.396733
      7         11           0       -1.525804   -1.952836   -1.292814
 ---------------------------------------------------------------------

 SCF Done:  E(UB3LYP) =  -1136.10122843     A.U. after   21 cycles

 The electronic state is 2-A.
 Alpha  occ. eigenvalues --  -38.44267 -38.44114 -38.43830 -38.43818 -38.43763
 Alpha  occ. eigenvalues --  -38.43679 -38.42481  -2.20361  -2.20103  -2.19812
 Alpha  occ. eigenvalues --   -2.19810  -2.19760  -2.19560  -2.18765  -1.14124
 Alpha  occ. eigenvalues --   -1.14071  -1.13979  -1.13824  -1.13760  -1.13684
 Alpha  occ. eigenvalues --   -1.13618  -1.13602  -1.13475  -1.13458  -1.13435
 Alpha  occ. eigenvalues --   -1.13407  -1.13385  -1.13372  -1.13272  -1.13256
 Alpha  occ. eigenvalues --   -1.13200  -1.13191  -1.12464  -1.12397  -1.12384
 Alpha  occ. eigenvalues --   -0.20161  -0.13216  -0.12405  -0.11916
 Alpha virt. eigenvalues --   -0.05449  -0.04976  -0.04003  -0.03352  -0.03121
 Alpha virt. eigenvalues --   -0.02525  -0.01165  -0.01062  -0.00361   0.00294
 Alpha virt. eigenvalues --    0.00405   0.00495   0.00797   0.00902   0.01024

  Beta  occ. eigenvalues --  -38.44179 -38.44065 -38.43823 -38.43783 -38.43760
  Beta  occ. eigenvalues --  -38.43645 -38.42452  -2.20204  -2.20017  -2.19801
  Beta  occ. eigenvalues --   -2.19750  -2.19705  -2.19555  -2.18719  -1.14029
  Beta  occ. eigenvalues --   -1.13950  -1.13877  -1.13775  -1.13680  -1.13619
  Beta  occ. eigenvalues --   -1.13580  -1.13560  -1.13456  -1.13420  -1.13406
  Beta  occ. eigenvalues --   -1.13357  -1.13347  -1.13314  -1.13265  -1.13218
  Beta  occ. eigenvalues --   -1.13195  -1.13187  -1.12405  -1.12368  -1.12332
  Beta  occ. eigenvalues --   -0.19349  -0.13032  -0.11995
  Beta virt. eigenvalues --   -0.07824  -0.05255  -0.04889  -0.03597  -0.02878
  Beta virt. eigenvalues --   -0.02363  -0.01763  -0.01044  -0.00992  -0.00063
  Beta virt. eigenvalues --    0.00351   0.00419   0.00583   0.00824   0.00987

 Mulliken charges and spin densities:
               1          2
     1  Na   0.120435   0.103131
     2  Na   0.464718   0.021930
     3  Na   0.182957  -0.018652
     4  Na  -0.780163   0.632404
     5  Na  -0.538202   0.240943
     6  Na   0.216480   0.094204
     7  Na   0.333775  -0.073959
 Sum of Mulliken charges =  -0.00000   1.00000

 Dipole moment (field-independent basis, Debye):
    X=             -0.4022    Y=              0.0700    Z=              0.2899  Tot=              0.5007
 Quadrupole moment (field-independent basis, Debye-Ang):
   XX=            -64.3823   YY=            -61.3376   ZZ=            -67.6837
   XY=              1.0111   XZ=              1.4974   YZ=             -0.6372

 Normal termination of Gaussian 16 at Mon Nov 13 20:16:26 2023.
