 Gaussian 16, Revision B.01,
 Gaussian 16:  ES64L-G16RevB.01 20-Dec-2017

 -------------------------
 #P B3LYP/6-311+g(d) force
 -------------------------

 ------------------------------
 Gaussian input prepared by ASE
 ------------------------------
 Symbolic Z-matrix:
 Charge =  0 Multiplicity = 2

                         Standard orientation:
 ---------------------------------------------------------------------
 Center     Atomic      Atomic             Coordinates (Angstroms)
 Number     Number       Type             X           Y           Z
 ---------------------------------------------------------------------
      1         11           0        1.975858   -0.842015    1.999832
      2         11           0        1.640965    1.890966    0.810562
      3         11           0        3.213565    1.042451   -1.605855
      4         11           0        2.081616   -1.646780   -0.890749
      5         11           0       -0.350455   -0.273015    0.206188
      6         11           0       -3.164887   -1.067809   -0.448368
      7         11           0       -5.396663    0.896202   -0.071610
 ---------------------------------------------------------------------

 SCF Done:  E(UB3LYP) =  -1136.08749100     A.U. after   33 cycles

 The electronic state is 2-A.
 Alpha  occ. eigenvalues --  -38.45230 -38.45053 -38.44487 -38.44368 -38.44362
 Alpha  occ. eigenvalues --  -38.44062 -38.42577  -2.21037  -2.21019  -2.20513
 Alpha  occ. eigenvalues --   -2.20429  -2.20239  -2.20087  -2.18503  -1.14784
 Alpha  occ. eigenvalues --   -1.14739  -1.14720  -1.14669  -1.14663  -1.14652
 Alpha  occ. eigenvalues --   -1.14281  -1.14223  -1.14156  -1.14115  -1.14027
 Alpha  occ. eigenvalues --   -1.14013  -1.13885  -1.13871  -1.13853  -1.13741
 Alpha  occ. eigenvalues --   -1.13718  -1.13683  -1.12189  -1.12156  -1.12131
 Alpha  occ. eigenvalues --   -0.19333  -0.14350  -0.11916  -0.11034
 Alpha virt. eigenvalues --   -0.07888  -0.05063  -0.03576  -0.03268  -0.02942
 Alpha virt. eigenvalues --   -0.02682  -0.02532  -0.01580  -0.01184  -0.00381
 Alpha virt. eigenvalues --   -0.00033   0.00096   0.00228   0.00516   0.00850

  Beta  occ. eigenvalues --  -38.45236 -38.45024 -38.44394 -38.44361 -38.44350
  Beta  occ. eigenvalues --  -38.43983 -38.42558  -2.21030  -2.20991  -2.20406
  Beta  occ. eigenvalues --   -2.20342  -2.20235  -2.19943  -2.18472  -1.14759
  Beta  occ. eigenvalues --   -1.14728  -1.14676  -1.14671  -1.14654  -1.14618
  Beta  occ. eigenvalues --   -1.14241  -1.14137  -1.14048  -1.14018  -1.13991
  Beta  occ. eigenvalues --   -1.13929  -1.13875  -1.13864  -1.13850  -1.13648
  Beta  occ. eigenvalues --   -1.13633  -1.13566  -1.12162  -1.12119  -1.12110
  Beta  occ. eigenvalues --   -0.18479  -0.14313  -0.10842
  Beta virt. eigenvalues --   -0.07720  -0.07525  -0.04914  -0.03371  -0.02955
  Beta virt. eigenvalues --   -0.02675  -0.02090  -0.01716  -0.01351  -0.00898
  Beta virt. eigenvalues --   -0.00217  -0.00014   0.00212   0.00316   0.00564

 Mulliken charges and spin densities:
               1          2
     1  Na   0.591742  -0.089014
     2  Na   1.766923   0.390949
     3  Na  -0.774001  -0.085233
     4  Na   1.403523   0.600062
     5  Na  -2.233560   0.232339
     6  Na  -0.603721   0.000748
     7  Na  -0.150906  -0.049852
 Sum of Mulliken charges =  -0.00000   1.00000

 Dipole moment (field-independent basis, Debye):
    X=             -1.0569    Y=             -0.1346    Z=              0.8365  Tot=              1.3546
 Quadrupole moment (field-independent basis, Debye-Ang):
   XX=            -56.3937   YY=            -70.6662   ZZ=            -70.0256
   XY=             -9.1382   XZ=              4.8209   YZ=              2.5931

 Normal termination of Gaussian 16 at Mon Nov 13 15:49:15 2023.
