 Gaussian 16, Revision B.01,
 Gaussian 16:  ES64L-G16RevB.01 20-Dec-2017

 -------------------------
 #P B3LYP/6-311+g(d) force
 -------------------------

 ------------------------------
 Gaussian input prepared by ASE
 ------------------------------
 Symbolic Z-matrix:
 Charge =  0 Multiplicity = 2

                         Standard orientation:
 ---------------------------------------------------------------------
 Center     Atomic      Atomic             Coordinates (Angstroms)
 Number     Number       Type             X           Y           Z
 ---------------------------------------------------------------------
      1         11           0        0.465060   -0.346455   -1.492667
      2         11           0        0.465169   -0.347306    1.492819
      3         11           0        2.923953   -1.192768   -0.000327
      4         11           0        2.086294    1.684428    0.000338
      5         11           0       -0.902979    1.872419   -0.000052
      6         11           0       -3.478200    0.321901    0.000104
      7         11           0       -1.559296   -1.992219   -0.000215
 ---------------------------------------------------------------------

 SCF Done:  E(UB3LYP) =  -1136.09665581     A.U. after   21 cycles

 The electronic state is 2-A.
 Alpha  occ. eigenvalues --  -38.45774 -38.44808 -38.43524 -38.43481 -38.43373
 Alpha  occ. eigenvalues --  -38.43372 -38.42641  -2.21645  -2.20779  -2.19609
 Alpha  occ. eigenvalues --   -2.19574  -2.19551  -2.19456  -2.18708  -1.15335
 Alpha  occ. eigenvalues --   -1.15316  -1.15277  -1.14524  -1.14439  -1.14404
 Alpha  occ. eigenvalues --   -1.13529  -1.13423  -1.13318  -1.13264  -1.13223
 Alpha  occ. eigenvalues --   -1.13191  -1.13184  -1.13151  -1.13109  -1.13068
 Alpha  occ. eigenvalues --   -1.13033  -1.13025  -1.12417  -1.12333  -1.12327
 Alpha  occ. eigenvalues --   -0.20480  -0.14762  -0.11857  -0.10761
 Alpha virt. eigenvalues --   -0.07114  -0.05047  -0.03711  -0.03361  -0.02611
 Alpha virt. eigenvalues --   -0.02056  -0.01764  -0.01000  -0.00082  -0.00048
 Alpha virt. eigenvalues --    0.00197   0.00333   0.00798   0.00798   0.00884

  Beta  occ. eigenvalues --  -38.45781 -38.44792 -38.43507 -38.43472 -38.43296
  Beta  occ. eigenvalues --  -38.43295 -38.42624  -2.21659  -2.20756  -2.19581
  Beta  occ. eigenvalues --   -2.19453  -2.19433  -2.19412  -2.18686  -1.15350
  Beta  occ. eigenvalues --   -1.15325  -1.15270  -1.14513  -1.14395  -1.14375
  Beta  occ. eigenvalues --   -1.13473  -1.13366  -1.13247  -1.13232  -1.13152
  Beta  occ. eigenvalues --   -1.13137  -1.13105  -1.13066  -1.13057  -1.13014
  Beta  occ. eigenvalues --   -1.12967  -1.12954  -1.12405  -1.12319  -1.12263
  Beta  occ. eigenvalues --   -0.19712  -0.14476  -0.11557
  Beta virt. eigenvalues --   -0.07037  -0.06684  -0.05066  -0.03354  -0.02838
  Beta virt. eigenvalues --   -0.02531  -0.01301  -0.00971  -0.00771  -0.00101
  Beta virt. eigenvalues --    0.00162   0.00241   0.00312   0.00829   0.00901

 Mulliken charges and spin densities:
               1          2
     1  Na  -0.541634   0.287321
     2  Na  -0.541504   0.287586
     3  Na   0.702628   0.120656
     4  Na   0.516535   0.140511
     5  Na  -0.145780   0.090568
     6  Na  -0.248539  -0.040381
     7  Na   0.258293   0.113739
 Sum of Mulliken charges =  -0.00000   1.00000

 Dipole moment (field-independent basis, Debye):
    X=             -0.5200    Y=             -0.2110    Z=              0.0004  Tot=              0.5612
 Quadrupole moment (field-independent basis, Debye-Ang):
   XX=            -42.9754   YY=            -72.7569   ZZ=            -75.5343
   XY=             -0.7826   XZ=             -0.0004   YZ=              0.0020

 Normal termination of Gaussian 16 at Mon Nov 13 17:06:58 2023.
