 Gaussian 16, Revision B.01,
 Gaussian 16:  ES64L-G16RevB.01 20-Dec-2017

 -------------------------
 #P B3LYP/6-311+g(d) force
 -------------------------

 ------------------------------
 Gaussian input prepared by ASE
 ------------------------------
 Symbolic Z-matrix:
 Charge =  0 Multiplicity = 2

                         Standard orientation:
 ---------------------------------------------------------------------
 Center     Atomic      Atomic             Coordinates (Angstroms)
 Number     Number       Type             X           Y           Z
 ---------------------------------------------------------------------
      1         11           0        0.091361   -0.000495    1.430029
      2         11           0        2.179353    1.680018    0.000155
      3         11           0        2.225505   -1.621888   -0.000118
      4         11           0        0.091078    0.002553   -1.428782
      5         11           0       -0.971416   -2.451223   -0.002025
      6         11           0       -2.576190   -0.034334    0.001163
      7         11           0       -1.039689    2.425367   -0.000421
 ---------------------------------------------------------------------

 SCF Done:  E(UB3LYP) =  -1136.10766833     A.U. after   19 cycles

 The electronic state is 2-A.
 Alpha  occ. eigenvalues --  -38.43569 -38.43567 -38.43565 -38.43426 -38.43422
 Alpha  occ. eigenvalues --  -38.42882 -38.42882  -2.19658  -2.19553  -2.19548
 Alpha  occ. eigenvalues --   -2.19461  -2.19456  -2.19199  -2.19156  -1.13530
 Alpha  occ. eigenvalues --   -1.13483  -1.13397  -1.13319  -1.13292  -1.13233
 Alpha  occ. eigenvalues --   -1.13221  -1.13219  -1.13166  -1.13145  -1.13116
 Alpha  occ. eigenvalues --   -1.13110  -1.13092  -1.13063  -1.13002  -1.12989
 Alpha  occ. eigenvalues --   -1.12752  -1.12745  -1.12733  -1.12727  -1.12703
 Alpha  occ. eigenvalues --   -0.20797  -0.13634  -0.13361  -0.10788
 Alpha virt. eigenvalues --   -0.05053  -0.05032  -0.04610  -0.02985  -0.02789
 Alpha virt. eigenvalues --   -0.01727  -0.01201  -0.01114   0.00088   0.00230
 Alpha virt. eigenvalues --    0.00328   0.00372   0.00953   0.00969   0.01045

  Beta  occ. eigenvalues --  -38.43560 -38.43556 -38.43554 -38.43415 -38.43411
  Beta  occ. eigenvalues --  -38.42805 -38.42805  -2.19640  -2.19542  -2.19537
  Beta  occ. eigenvalues --   -2.19447  -2.19441  -2.19063  -2.19018  -1.13513
  Beta  occ. eigenvalues --   -1.13479  -1.13378  -1.13307  -1.13224  -1.13217
  Beta  occ. eigenvalues --   -1.13183  -1.13169  -1.13159  -1.13135  -1.13107
  Beta  occ. eigenvalues --   -1.13057  -1.13057  -1.13033  -1.12986  -1.12932
  Beta  occ. eigenvalues --   -1.12660  -1.12647  -1.12645  -1.12628  -1.12601
  Beta  occ. eigenvalues --   -0.20040  -0.13290  -0.13029
  Beta virt. eigenvalues --   -0.06707  -0.05064  -0.05030  -0.04597  -0.02089
  Beta virt. eigenvalues --   -0.01929  -0.01131  -0.01055  -0.00750   0.00186
  Beta virt. eigenvalues --    0.00213   0.00286   0.00422   0.00970   0.00984

 Mulliken charges and spin densities:
               1          2
     1  Na  -0.866555   0.484028
     2  Na   0.267252  -0.055043
     3  Na   0.267737  -0.054839
     4  Na  -0.870263   0.482391
     5  Na   0.405811   0.025169
     6  Na   0.391754   0.093606
     7  Na   0.404264   0.024687
 Sum of Mulliken charges =  -0.00000   1.00000

 Dipole moment (field-independent basis, Debye):
    X=              0.3445    Y=              0.0053    Z=              0.0009  Tot=              0.3445
 Quadrupole moment (field-independent basis, Debye-Ang):
   XX=            -57.9928   YY=            -59.2422   ZZ=            -75.4323
   XY=             -0.0124   XZ=             -0.0007   YZ=              0.0071

 Normal termination of Gaussian 16 at Mon Nov 13 20:12:30 2023.
