 Gaussian 16, Revision B.01,
 Gaussian 16:  ES64L-G16RevB.01 20-Dec-2017

 -------------------------
 #P B3LYP/6-311+g(d) force
 -------------------------

 ------------------------------
 Gaussian input prepared by ASE
 ------------------------------
 Symbolic Z-matrix:
 Charge =  0 Multiplicity = 2

                         Standard orientation:
 ---------------------------------------------------------------------
 Center     Atomic      Atomic             Coordinates (Angstroms)
 Number     Number       Type             X           Y           Z
 ---------------------------------------------------------------------
      1         11           0        0.584685   -0.012715    1.751954
      2         11           0        3.022728   -0.000750   -0.008375
      3         11           0       -2.402474   -0.012696    1.497309
      4         11           0       -2.414223    0.011485   -1.492074
      5         11           0        0.318032   -2.419919   -0.014954
      6         11           0        0.573609    0.012516   -1.752091
      7         11           0        0.317643    2.422079    0.018232
 ---------------------------------------------------------------------

 SCF Done:  E(UB3LYP) =  -1136.11309137     A.U. after   23 cycles

 The electronic state is 2-A.
 Alpha  occ. eigenvalues --  -38.44415 -38.44412 -38.44179 -38.43977 -38.43977
 Alpha  occ. eigenvalues --  -38.42446 -38.42445  -2.20339  -2.20322  -2.20128
 Alpha  occ. eigenvalues --   -2.20118  -2.20102  -2.18391  -2.18388  -1.14162
 Alpha  occ. eigenvalues --   -1.14099  -1.14096  -1.13943  -1.13922  -1.13891
 Alpha  occ. eigenvalues --   -1.13890  -1.13868  -1.13781  -1.13757  -1.13739
 Alpha  occ. eigenvalues --   -1.13738  -1.13674  -1.13667  -1.13645  -1.12118
 Alpha  occ. eigenvalues --   -1.12112  -1.12084  -1.12075  -1.11955  -1.11952
 Alpha  occ. eigenvalues --   -0.20011  -0.13534  -0.12652  -0.11566
 Alpha virt. eigenvalues --   -0.05672  -0.04699  -0.03833  -0.03339  -0.03311
 Alpha virt. eigenvalues --   -0.02919  -0.01540  -0.00556  -0.00319   0.00325
 Alpha virt. eigenvalues --    0.00433   0.00472   0.00861   0.00982   0.00997

  Beta  occ. eigenvalues --  -38.44376 -38.44373 -38.44173 -38.43899 -38.43899
  Beta  occ. eigenvalues --  -38.42440 -38.42439  -2.20270  -2.20253  -2.20109
  Beta  occ. eigenvalues --   -2.19979  -2.19973  -2.18384  -2.18382  -1.14097
  Beta  occ. eigenvalues --   -1.14043  -1.14015  -1.13901  -1.13877  -1.13848
  Beta  occ. eigenvalues --   -1.13844  -1.13822  -1.13704  -1.13689  -1.13656
  Beta  occ. eigenvalues --   -1.13638  -1.13636  -1.13581  -1.13569  -1.12118
  Beta  occ. eigenvalues --   -1.12112  -1.12045  -1.12036  -1.11955  -1.11953
  Beta  occ. eigenvalues --   -0.19217  -0.13321  -0.11290
  Beta virt. eigenvalues --   -0.08414  -0.05627  -0.03939  -0.03465  -0.03280
  Beta virt. eigenvalues --   -0.02500  -0.02129  -0.01492  -0.00299  -0.00211
  Beta virt. eigenvalues --    0.00348   0.00548   0.00640   0.00834   0.01012

 Mulliken charges and spin densities:
               1          2
     1  Na   0.065362   0.531318
     2  Na   0.859099   0.003683
     3  Na   0.102089   0.008534
     4  Na   0.102866   0.007998
     5  Na  -0.595122  -0.041773
     6  Na   0.061419   0.532447
     7  Na  -0.595713  -0.042208
 Sum of Mulliken charges =  -0.00000   1.00000

 Dipole moment (field-independent basis, Debye):
    X=             -0.1018    Y=              0.0003    Z=             -0.0032  Tot=              0.1019
 Quadrupole moment (field-independent basis, Debye-Ang):
   XX=            -55.7338   YY=            -75.1865   ZZ=            -64.2891
   XY=             -0.0012   XZ=             -0.0064   YZ=              0.2724

 Normal termination of Gaussian 16 at Mon Nov 13 18:34:27 2023.
