 Gaussian 16, Revision B.01,
 Gaussian 16:  ES64L-G16RevB.01 20-Dec-2017

 -------------------------
 #P B3LYP/6-311+g(d) force
 -------------------------

 ------------------------------
 Gaussian input prepared by ASE
 ------------------------------
 Symbolic Z-matrix:
 Charge =  0 Multiplicity = 2

                         Standard orientation:
 ---------------------------------------------------------------------
 Center     Atomic      Atomic             Coordinates (Angstroms)
 Number     Number       Type             X           Y           Z
 ---------------------------------------------------------------------
      1         11           0        0.507029    2.264663   -1.425505
      2         11           0        0.743367   -2.037131    1.506544
      3         11           0       -3.794935   -0.519512   -0.167753
      4         11           0       -0.813969   -0.164173   -0.250607
      5         11           0        1.249551   -1.990907   -1.440799
      6         11           0        2.088133    0.337502    0.254236
      7         11           0        0.020824    2.109559    1.523884
 ---------------------------------------------------------------------

 SCF Done:  E(UB3LYP) =  -1136.10132937     A.U. after   22 cycles

 The electronic state is 2-A.
 Alpha  occ. eigenvalues --  -38.44145 -38.44121 -38.44068 -38.44021 -38.43449
 Alpha  occ. eigenvalues --  -38.43252 -38.42168  -2.20140  -2.20115  -2.20060
 Alpha  occ. eigenvalues --   -2.20012  -2.19439  -2.19239  -2.18447  -1.13956
 Alpha  occ. eigenvalues --   -1.13926  -1.13818  -1.13786  -1.13771  -1.13758
 Alpha  occ. eigenvalues --   -1.13739  -1.13710  -1.13690  -1.13641  -1.13597
 Alpha  occ. eigenvalues --   -1.13559  -1.13160  -1.13095  -1.13007  -1.12949
 Alpha  occ. eigenvalues --   -1.12885  -1.12877  -1.12139  -1.12087  -1.12084
 Alpha  occ. eigenvalues --   -0.20127  -0.13303  -0.11896  -0.11768
 Alpha virt. eigenvalues --   -0.05361  -0.04885  -0.04437  -0.03172  -0.02704
 Alpha virt. eigenvalues --   -0.02325  -0.01053  -0.00990  -0.00707   0.00325
 Alpha virt. eigenvalues --    0.00513   0.00565   0.00772   0.00897   0.00955

  Beta  occ. eigenvalues --  -38.44104 -38.44080 -38.44031 -38.43985 -38.43459
  Beta  occ. eigenvalues --  -38.43219 -38.42136  -2.20067  -2.20042  -2.19993
  Beta  occ. eigenvalues --   -2.19947  -2.19392  -2.19258  -2.18400  -1.13919
  Beta  occ. eigenvalues --   -1.13889  -1.13750  -1.13719  -1.13717  -1.13696
  Beta  occ. eigenvalues --   -1.13687  -1.13654  -1.13642  -1.13594  -1.13540
  Beta  occ. eigenvalues --   -1.13503  -1.13137  -1.12987  -1.12969  -1.12960
  Beta  occ. eigenvalues --   -1.12895  -1.12890  -1.12078  -1.12062  -1.12011
  Beta  occ. eigenvalues --   -0.19146  -0.13195  -0.11747
  Beta virt. eigenvalues --   -0.07515  -0.05227  -0.04701  -0.03771  -0.03057
  Beta virt. eigenvalues --   -0.01913  -0.01700  -0.01025  -0.00950  -0.00252
  Beta virt. eigenvalues --    0.00365   0.00481   0.00702   0.00798   0.00889

 Mulliken charges and spin densities:
               1          2
     1  Na   0.235347   0.077561
     2  Na   0.049931   0.066459
     3  Na   0.150857  -0.923555
     4  Na  -2.502197   0.564812
     5  Na   0.503834   0.140084
     6  Na   1.555830   1.046937
     7  Na   0.006397   0.027703
 Sum of Mulliken charges =  -0.00000   1.00000

 Dipole moment (field-independent basis, Debye):
    X=              0.6622    Y=              0.1040    Z=              0.0982  Tot=              0.6775
 Quadrupole moment (field-independent basis, Debye-Ang):
   XX=            -67.4534   YY=            -61.6874   ZZ=            -63.2362
   XY=             -1.6760   XZ=             -1.3078   YZ=             -0.2465

 Normal termination of Gaussian 16 at Mon Nov 13 20:20:21 2023.
