 Gaussian 16, Revision B.01,
 Gaussian 16:  ES64L-G16RevB.01 20-Dec-2017

 -------------------------
 #P B3LYP/6-311+g(d) force
 -------------------------

 ------------------------------
 Gaussian input prepared by ASE
 ------------------------------
 Symbolic Z-matrix:
 Charge =  0 Multiplicity = 2

                         Standard orientation:
 ---------------------------------------------------------------------
 Center     Atomic      Atomic             Coordinates (Angstroms)
 Number     Number       Type             X           Y           Z
 ---------------------------------------------------------------------
      1         11           0       -1.524758   -1.886403   -1.212947
      2         11           0       -3.037835   -2.124716    1.366838
      3         11           0       -3.442442    0.270094   -0.393081
      4         11           0       -1.746990    2.747506   -0.377921
      5         11           0        0.926817    1.802479    0.605513
      6         11           0        3.773889    0.927998    0.258641
      7         11           0        5.051318   -1.736958   -0.247042
 ---------------------------------------------------------------------

 SCF Done:  E(UB3LYP) =  -1136.09791869     A.U. after   22 cycles

 The electronic state is 2-A.
 Alpha  occ. eigenvalues --  -38.46515 -38.45733 -38.44310 -38.43482 -38.43209
 Alpha  occ. eigenvalues --  -38.43207 -38.43058  -2.22393  -2.21621  -2.20324
 Alpha  occ. eigenvalues --   -2.19319  -2.19120  -2.19085  -2.18957  -1.16096
 Alpha  occ. eigenvalues --   -1.16065  -1.15999  -1.15320  -1.15263  -1.15236
 Alpha  occ. eigenvalues --   -1.14015  -1.13964  -1.13953  -1.13064  -1.12946
 Alpha  occ. eigenvalues --   -1.12945  -1.12935  -1.12780  -1.12745  -1.12726
 Alpha  occ. eigenvalues --   -1.12706  -1.12693  -1.12632  -1.12590  -1.12547
 Alpha  occ. eigenvalues --   -0.17784  -0.14407  -0.12545  -0.10241
 Alpha virt. eigenvalues --   -0.07270  -0.05713  -0.04410  -0.03128  -0.03005
 Alpha virt. eigenvalues --   -0.02598  -0.02114  -0.01408  -0.00992  -0.00648
 Alpha virt. eigenvalues --   -0.00363  -0.00085   0.00197   0.00460   0.00643

  Beta  occ. eigenvalues --  -38.46497 -38.45725 -38.44255 -38.43406 -38.43206
  Beta  occ. eigenvalues --  -38.43156 -38.43053  -2.22359  -2.21608  -2.20225
  Beta  occ. eigenvalues --   -2.19178  -2.19094  -2.19019  -2.18953  -1.16076
  Beta  occ. eigenvalues --   -1.16026  -1.15979  -1.15308  -1.15243  -1.15229
  Beta  occ. eigenvalues --   -1.13950  -1.13897  -1.13873  -1.12986  -1.12889
  Beta  occ. eigenvalues --   -1.12850  -1.12845  -1.12747  -1.12730  -1.12696
  Beta  occ. eigenvalues --   -1.12667  -1.12639  -1.12610  -1.12591  -1.12511
  Beta  occ. eigenvalues --   -0.17416  -0.13871  -0.11946
  Beta virt. eigenvalues --   -0.07171  -0.06925  -0.05163  -0.04311  -0.02894
  Beta virt. eigenvalues --   -0.02427  -0.02328  -0.01860  -0.01345  -0.00705
  Beta virt. eigenvalues --   -0.00460  -0.00075   0.00129   0.00264   0.00579

 Mulliken charges and spin densities:
               1          2
     1  Na  -0.484567   0.093228
     2  Na   0.809771   0.050512
     3  Na  -0.378099   0.287406
     4  Na   1.389529   0.123575
     5  Na  -0.980383   0.128592
     6  Na  -0.212157  -0.038607
     7  Na  -0.144095   0.355294
 Sum of Mulliken charges =  -0.00000   1.00000

 Dipole moment (field-independent basis, Debye):
    X=             -2.8649    Y=             -2.1912    Z=              0.0894  Tot=              3.6079
 Quadrupole moment (field-independent basis, Debye-Ang):
   XX=            -75.0929   YY=            -69.1220   ZZ=            -63.8084
   XY=              4.3564   XZ=             -4.8633   YZ=              0.8798

 Normal termination of Gaussian 16 at Mon Nov 13 14:48:28 2023.
