 Gaussian 16, Revision B.01,
 Gaussian 16:  ES64L-G16RevB.01 20-Dec-2017

 -------------------------
 #P B3LYP/6-311+g(d) force
 -------------------------

 ------------------------------
 Gaussian input prepared by ASE
 ------------------------------
 Symbolic Z-matrix:
 Charge =  0 Multiplicity = 2

                         Standard orientation:
 ---------------------------------------------------------------------
 Center     Atomic      Atomic             Coordinates (Angstroms)
 Number     Number       Type             X           Y           Z
 ---------------------------------------------------------------------
      1         11           0        1.470923    0.541396    1.226684
      2         11           0       -0.854164   -0.810464    1.540779
      3         11           0        0.813673    2.192162   -0.823242
      4         11           0       -1.577972    1.409177    0.177987
      5         11           0       -2.762151   -1.110038   -0.619602
      6         11           0        0.080943   -0.790217   -1.092325
      7         11           0        2.828748   -1.432016   -0.410283
 ---------------------------------------------------------------------

 SCF Done:  E(UB3LYP) =  -1136.07258635     A.U. after   20 cycles

 The electronic state is 2-A.
 Alpha  occ. eigenvalues --  -38.44561 -38.44233 -38.44137 -38.43958 -38.43586
 Alpha  occ. eigenvalues --  -38.43481 -38.43468  -2.20805  -2.20266  -2.20215
 Alpha  occ. eigenvalues --   -2.20063  -2.19832  -2.19784  -2.19556  -1.14745
 Alpha  occ. eigenvalues --   -1.14607  -1.14421  -1.14075  -1.14009  -1.13973
 Alpha  occ. eigenvalues --   -1.13923  -1.13893  -1.13818  -1.13796  -1.13710
 Alpha  occ. eigenvalues --   -1.13650  -1.13599  -1.13508  -1.13449  -1.13407
 Alpha  occ. eigenvalues --   -1.13363  -1.13305  -1.13137  -1.13130  -1.13037
 Alpha  occ. eigenvalues --   -0.21241  -0.14309  -0.12239  -0.12011
 Alpha virt. eigenvalues --   -0.05793  -0.04597  -0.03870  -0.03495  -0.02671
 Alpha virt. eigenvalues --   -0.02482  -0.01545  -0.00664  -0.00215   0.00277
 Alpha virt. eigenvalues --    0.00624   0.00696   0.00929   0.01002   0.01079

  Beta  occ. eigenvalues --  -38.44478 -38.44217 -38.44132 -38.43906 -38.43565
  Beta  occ. eigenvalues --  -38.43461 -38.43415  -2.20660  -2.20240  -2.20129
  Beta  occ. eigenvalues --   -2.20055  -2.19801  -2.19696  -2.19523  -1.14655
  Beta  occ. eigenvalues --   -1.14503  -1.14308  -1.14028  -1.13965  -1.13949
  Beta  occ. eigenvalues --   -1.13896  -1.13847  -1.13777  -1.13742  -1.13683
  Beta  occ. eigenvalues --   -1.13638  -1.13557  -1.13474  -1.13384  -1.13326
  Beta  occ. eigenvalues --   -1.13301  -1.13239  -1.13110  -1.13079  -1.13016
  Beta  occ. eigenvalues --   -0.20382  -0.14067  -0.12005
  Beta virt. eigenvalues --   -0.07641  -0.05722  -0.04500  -0.03457  -0.03050
  Beta virt. eigenvalues --   -0.02003  -0.01523  -0.01335  -0.00600   0.00021
  Beta virt. eigenvalues --    0.00315   0.00630   0.00762   0.00933   0.01021

 Mulliken charges and spin densities:
               1          2
     1  Na  -0.019006  -0.200334
     2  Na  -0.094705   0.292909
     3  Na   0.361715  -0.004607
     4  Na  -0.499351   0.461724
     5  Na   1.830993  -0.031460
     6  Na  -1.343307   0.410721
     7  Na  -0.236339   0.071047
 Sum of Mulliken charges =  -0.00000   1.00000

 Dipole moment (field-independent basis, Debye):
    X=              0.0480    Y=             -0.2453    Z=             -0.3373  Tot=              0.4199
 Quadrupole moment (field-independent basis, Debye-Ang):
   XX=            -54.5373   YY=            -71.3037   ZZ=            -68.9804
   XY=              0.5547   XZ=              0.3899   YZ=              0.1036

 Normal termination of Gaussian 16 at Mon Nov 13 19:40:03 2023.
