 Gaussian 16, Revision B.01,
 Gaussian 16:  ES64L-G16RevB.01 20-Dec-2017

 -------------------------
 #P B3LYP/6-311+g(d) force
 -------------------------

 ------------------------------
 Gaussian input prepared by ASE
 ------------------------------
 Symbolic Z-matrix:
 Charge =  0 Multiplicity = 2

                         Standard orientation:
 ---------------------------------------------------------------------
 Center     Atomic      Atomic             Coordinates (Angstroms)
 Number     Number       Type             X           Y           Z
 ---------------------------------------------------------------------
      1         11           0        0.811672    0.188316   -1.764778
      2         11           0        1.309939   -2.130365   -0.248468
      3         11           0       -4.285564   -0.044277    0.049507
      4         11           0       -1.390308   -0.512962   -0.145478
      5         11           0        0.651439   -0.325618    1.814423
      6         11           0        0.113521    2.217120    0.088367
      7         11           0        2.789300    0.607787    0.206427
 ---------------------------------------------------------------------

 SCF Done:  E(UB3LYP) =  -1136.07601919     A.U. after   26 cycles

 The electronic state is 2-A.
 Alpha  occ. eigenvalues --  -38.45990 -38.45001 -38.44427 -38.44374 -38.43348
 Alpha  occ. eigenvalues --  -38.42656 -38.42608  -2.21761  -2.21096  -2.20616
 Alpha  occ. eigenvalues --   -2.20610  -2.19512  -2.18761  -2.18660  -1.15473
 Alpha  occ. eigenvalues --   -1.15408  -1.15397  -1.14926  -1.14876  -1.14654
 Alpha  occ. eigenvalues --   -1.14403  -1.14339  -1.14247  -1.14233  -1.14189
 Alpha  occ. eigenvalues --   -1.14169  -1.13224  -1.13181  -1.13063  -1.12468
 Alpha  occ. eigenvalues --   -1.12413  -1.12394  -1.12348  -1.12311  -1.12238
 Alpha  occ. eigenvalues --   -0.21007  -0.13637  -0.12053  -0.11852
 Alpha virt. eigenvalues --   -0.07610  -0.03588  -0.03458  -0.03380  -0.02652
 Alpha virt. eigenvalues --   -0.02581  -0.02550  -0.00634  -0.00425  -0.00094
 Alpha virt. eigenvalues --    0.00215   0.00341   0.00414   0.00801   0.01128

  Beta  occ. eigenvalues --  -38.46015 -38.44970 -38.44331 -38.44274 -38.43322
  Beta  occ. eigenvalues --  -38.42638 -38.42595  -2.21807  -2.21047  -2.20438
  Beta  occ. eigenvalues --   -2.20435  -2.19471  -2.18736  -2.18643  -1.15504
  Beta  occ. eigenvalues --   -1.15437  -1.15429  -1.14892  -1.14769  -1.14628
  Beta  occ. eigenvalues --   -1.14291  -1.14217  -1.14119  -1.14112  -1.14068
  Beta  occ. eigenvalues --   -1.14044  -1.13213  -1.13086  -1.13041  -1.12460
  Beta  occ. eigenvalues --   -1.12389  -1.12339  -1.12327  -1.12253  -1.12228
  Beta  occ. eigenvalues --   -0.20106  -0.13553  -0.11551
  Beta virt. eigenvalues --   -0.07643  -0.07428  -0.03531  -0.03321  -0.02761
  Beta virt. eigenvalues --   -0.02577  -0.01744  -0.01500  -0.00601  -0.00164
  Beta virt. eigenvalues --   -0.00032   0.00197   0.00411   0.00577   0.00846

 Mulliken charges and spin densities:
               1          2
     1  Na  -0.447258   0.396586
     2  Na   0.124375  -0.102909
     3  Na   0.182978  -0.160949
     4  Na   0.262988   0.335026
     5  Na  -0.360717   0.463600
     6  Na  -0.149465  -0.054821
     7  Na   0.387099   0.123467
 Sum of Mulliken charges =  -0.00000   1.00000

 Dipole moment (field-independent basis, Debye):
    X=             -0.8995    Y=              0.3422    Z=              0.1921  Tot=              0.9814
 Quadrupole moment (field-independent basis, Debye-Ang):
   XX=            -45.7359   YY=            -75.0928   ZZ=            -69.8441
   XY=             -1.0420   XZ=             -0.3417   YZ=              1.0942

 Normal termination of Gaussian 16 at Mon Nov 13 19:51:40 2023.
