 Gaussian 16, Revision B.01,
 Gaussian 16:  ES64L-G16RevB.01 20-Dec-2017

 -------------------------
 #P B3LYP/6-311+g(d) force
 -------------------------

 ------------------------------
 Gaussian input prepared by ASE
 ------------------------------
 Symbolic Z-matrix:
 Charge =  0 Multiplicity = 2

                         Standard orientation:
 ---------------------------------------------------------------------
 Center     Atomic      Atomic             Coordinates (Angstroms)
 Number     Number       Type             X           Y           Z
 ---------------------------------------------------------------------
      1         11           0        0.180062   -2.556885    0.246751
      2         11           0        0.506907   -0.803648   -2.155047
      3         11           0        3.014255    2.546716   -0.103227
      4         11           0        2.156619   -0.302458    0.303923
      5         11           0       -0.193768   -0.293983    2.172844
      6         11           0       -1.847169   -0.421645   -0.330542
      7         11           0       -3.816906    1.831903   -0.134702
 ---------------------------------------------------------------------

 SCF Done:  E(UB3LYP) =  -1136.09634955     A.U. after   25 cycles

 The electronic state is 2-A.
 Alpha  occ. eigenvalues --  -38.45589 -38.45294 -38.43967 -38.43745 -38.43671
 Alpha  occ. eigenvalues --  -38.43291 -38.43145  -2.21579  -2.21294  -2.19844
 Alpha  occ. eigenvalues --   -2.19762  -2.19471  -2.19380  -2.19228  -1.15291
 Alpha  occ. eigenvalues --   -1.15213  -1.15170  -1.14993  -1.14951  -1.14875
 Alpha  occ. eigenvalues --   -1.13564  -1.13535  -1.13485  -1.13470  -1.13409
 Alpha  occ. eigenvalues --   -1.13402  -1.13225  -1.13121  -1.13119  -1.13075
 Alpha  occ. eigenvalues --   -1.13038  -1.12932  -1.12921  -1.12885  -1.12815
 Alpha  occ. eigenvalues --   -0.19960  -0.13091  -0.12598  -0.11822
 Alpha virt. eigenvalues --   -0.06069  -0.05519  -0.04019  -0.03595  -0.02863
 Alpha virt. eigenvalues --   -0.02794  -0.01431  -0.01094  -0.00411  -0.00295
 Alpha virt. eigenvalues --    0.00187   0.00343   0.00478   0.00655   0.00851

  Beta  occ. eigenvalues --  -38.45483 -38.45195 -38.43977 -38.43721 -38.43682
  Beta  occ. eigenvalues --  -38.43270 -38.43124  -2.21388  -2.21113  -2.19810
  Beta  occ. eigenvalues --   -2.19781  -2.19492  -2.19349  -2.19194  -1.15169
  Beta  occ. eigenvalues --   -1.15075  -1.15022  -1.14881  -1.14817  -1.14742
  Beta  occ. eigenvalues --   -1.13555  -1.13521  -1.13478  -1.13422  -1.13414
  Beta  occ. eigenvalues --   -1.13379  -1.13233  -1.13132  -1.13128  -1.13029
  Beta  occ. eigenvalues --   -1.12996  -1.12911  -1.12878  -1.12848  -1.12799
  Beta  occ. eigenvalues --   -0.18953  -0.12940  -0.11710
  Beta virt. eigenvalues --   -0.08298  -0.05858  -0.05350  -0.03101  -0.02826
  Beta virt. eigenvalues --   -0.02753  -0.02120  -0.01371  -0.01046  -0.00347
  Beta virt. eigenvalues --   -0.00111   0.00244   0.00478   0.00682   0.00849

 Mulliken charges and spin densities:
               1          2
     1  Na   2.451207   0.110537
     2  Na  -0.684911   0.372914
     3  Na  -0.143118  -0.089732
     4  Na  -0.067081   0.024999
     5  Na  -0.560849   0.514618
     6  Na  -1.025233   0.222998
     7  Na   0.029986  -0.156333
 Sum of Mulliken charges =  -0.00000   1.00000

 Dipole moment (field-independent basis, Debye):
    X=             -0.0840    Y=             -0.1512    Z=             -0.0414  Tot=              0.1778
 Quadrupole moment (field-independent basis, Debye-Ang):
   XX=            -69.7666   YY=            -63.1925   ZZ=            -64.4460
   XY=             -2.2996   XZ=             -1.2425   YZ=             -0.8270

 Normal termination of Gaussian 16 at Mon Nov 13 16:22:09 2023.
