 Gaussian 16, Revision B.01,
 Gaussian 16:  ES64L-G16RevB.01 20-Dec-2017

 -------------------------
 #P B3LYP/6-311+g(d) force
 -------------------------

 ------------------------------
 Gaussian input prepared by ASE
 ------------------------------
 Symbolic Z-matrix:
 Charge =  0 Multiplicity = 2

                         Standard orientation:
 ---------------------------------------------------------------------
 Center     Atomic      Atomic             Coordinates (Angstroms)
 Number     Number       Type             X           Y           Z
 ---------------------------------------------------------------------
      1         11           0        0.977825    0.417869    1.077929
      2         11           0       -2.835337   -2.133995    0.530038
      3         11           0       -3.062863    2.904659   -0.298689
      4         11           0       -1.534924    0.336809   -0.566036
      5         11           0        0.082985   -2.155552   -0.167438
      6         11           0        2.755668   -0.991871   -0.884477
      7         11           0        3.616647    1.622082    0.308673
 ---------------------------------------------------------------------

 SCF Done:  E(UB3LYP) =  -1136.09378413     A.U. after   26 cycles

 The electronic state is 2-A.
 Alpha  occ. eigenvalues --  -38.45729 -38.44742 -38.43949 -38.43925 -38.43607
 Alpha  occ. eigenvalues --  -38.43320 -38.43068  -2.21766  -2.20753  -2.19880
 Alpha  occ. eigenvalues --   -2.19852  -2.19415  -2.19391  -2.19175  -1.15503
 Alpha  occ. eigenvalues --   -1.15436  -1.15409  -1.14461  -1.14418  -1.14374
 Alpha  occ. eigenvalues --   -1.13600  -1.13523  -1.13509  -1.13496  -1.13489
 Alpha  occ. eigenvalues --   -1.13455  -1.13226  -1.13109  -1.13063  -1.13051
 Alpha  occ. eigenvalues --   -1.13014  -1.12979  -1.12859  -1.12797  -1.12768
 Alpha  occ. eigenvalues --   -0.19283  -0.14889  -0.12211  -0.10263
 Alpha virt. eigenvalues --   -0.07213  -0.05659  -0.04016  -0.03286  -0.03057
 Alpha virt. eigenvalues --   -0.02335  -0.01655  -0.00992  -0.00697  -0.00382
 Alpha virt. eigenvalues --   -0.00060  -0.00012   0.00465   0.00514   0.00674

  Beta  occ. eigenvalues --  -38.45719 -38.44703 -38.43872 -38.43863 -38.43606
  Beta  occ. eigenvalues --  -38.43313 -38.43038  -2.21752  -2.20690  -2.19738
  Beta  occ. eigenvalues --   -2.19734  -2.19414  -2.19380  -2.19132  -1.15452
  Beta  occ. eigenvalues --   -1.15436  -1.15403  -1.14395  -1.14363  -1.14322
  Beta  occ. eigenvalues --   -1.13512  -1.13436  -1.13426  -1.13418  -1.13388
  Beta  occ. eigenvalues --   -1.13374  -1.13229  -1.13098  -1.13059  -1.13051
  Beta  occ. eigenvalues --   -1.12983  -1.12969  -1.12830  -1.12759  -1.12691
  Beta  occ. eigenvalues --   -0.18764  -0.14324  -0.11715
  Beta virt. eigenvalues --   -0.06973  -0.06763  -0.05453  -0.03709  -0.02985
  Beta virt. eigenvalues --   -0.02570  -0.01983  -0.01416  -0.00723  -0.00547
  Beta virt. eigenvalues --   -0.00060   0.00113   0.00200   0.00589   0.00691

 Mulliken charges and spin densities:
               1          2
     1  Na  -0.914025  -0.099104
     2  Na   0.355051   0.386057
     3  Na  -0.161572   0.044111
     4  Na  -1.257137  -0.008577
     5  Na   1.655451   0.186534
     6  Na  -0.087357   0.078852
     7  Na   0.409590   0.412127
 Sum of Mulliken charges =  -0.00000   1.00000

 Dipole moment (field-independent basis, Debye):
    X=              0.8906    Y=             -0.4044    Z=             -0.2225  Tot=              1.0031
 Quadrupole moment (field-independent basis, Debye-Ang):
   XX=            -60.9307   YY=            -71.0716   ZZ=            -68.4752
   XY=             -2.7558   XZ=             -4.2443   YZ=              0.9246

 Normal termination of Gaussian 16 at Mon Nov 13 16:15:36 2023.
