 Gaussian 16, Revision B.01,
 Gaussian 16:  ES64L-G16RevB.01 20-Dec-2017

 -------------------------
 #P B3LYP/6-311+g(d) force
 -------------------------

 ------------------------------
 Gaussian input prepared by ASE
 ------------------------------
 Symbolic Z-matrix:
 Charge =  0 Multiplicity = 2

                         Standard orientation:
 ---------------------------------------------------------------------
 Center     Atomic      Atomic             Coordinates (Angstroms)
 Number     Number       Type             X           Y           Z
 ---------------------------------------------------------------------
      1         11           0       -0.455856   -0.002456   -1.410503
      2         11           0        1.458017   -1.495727    0.357961
      3         11           0        3.945810   -0.000327   -0.403476
      4         11           0        1.459747    1.494153    0.356937
      5         11           0       -0.862567    0.000138    1.546270
      6         11           0       -2.768667    1.498531   -0.223853
      7         11           0       -2.776483   -1.494312   -0.223336
 ---------------------------------------------------------------------

 SCF Done:  E(UB3LYP) =  -1136.08441491     A.U. after   32 cycles

 The electronic state is 2-A.
 Alpha  occ. eigenvalues --  -38.45411 -38.45242 -38.43918 -38.43912 -38.43550
 Alpha  occ. eigenvalues --  -38.43197 -38.43194  -2.21388  -2.21312  -2.19918
 Alpha  occ. eigenvalues --   -2.19896  -2.19768  -2.19281  -2.19258  -1.15163
 Alpha  occ. eigenvalues --   -1.15096  -1.15001  -1.14976  -1.14963  -1.14924
 Alpha  occ. eigenvalues --   -1.13788  -1.13618  -1.13585  -1.13558  -1.13553
 Alpha  occ. eigenvalues --   -1.13541  -1.13416  -1.13354  -1.13296  -1.13097
 Alpha  occ. eigenvalues --   -1.12949  -1.12934  -1.12897  -1.12895  -1.12773
 Alpha  occ. eigenvalues --   -0.20424  -0.15534  -0.11223  -0.10800
 Alpha virt. eigenvalues --   -0.07713  -0.04990  -0.04270  -0.03313  -0.02684
 Alpha virt. eigenvalues --   -0.01751  -0.01643  -0.01084  -0.00713  -0.00130
 Alpha virt. eigenvalues --    0.00067   0.00352   0.00459   0.00769   0.00801

  Beta  occ. eigenvalues --  -38.45364 -38.45224 -38.43900 -38.43893 -38.43463
  Beta  occ. eigenvalues --  -38.43171 -38.43168  -2.21359  -2.21224  -2.19887
  Beta  occ. eigenvalues --   -2.19865  -2.19615  -2.19244  -2.19221  -1.15105
  Beta  occ. eigenvalues --   -1.15075  -1.14964  -1.14949  -1.14900  -1.14860
  Beta  occ. eigenvalues --   -1.13764  -1.13565  -1.13557  -1.13528  -1.13521
  Beta  occ. eigenvalues --   -1.13431  -1.13378  -1.13264  -1.13189  -1.13069
  Beta  occ. eigenvalues --   -1.12929  -1.12907  -1.12820  -1.12806  -1.12759
  Beta  occ. eigenvalues --   -0.19689  -0.15013  -0.10592
  Beta virt. eigenvalues --   -0.07473  -0.07283  -0.04869  -0.03575  -0.03039
  Beta virt. eigenvalues --   -0.02505  -0.01179  -0.01070  -0.01054  -0.00307
  Beta virt. eigenvalues --   -0.00007   0.00200   0.00371   0.00672   0.00813

 Mulliken charges and spin densities:
               1          2
     1  Na  -0.221256  -0.090321
     2  Na  -0.245692   0.022940
     3  Na   0.357274   0.281322
     4  Na  -0.250328   0.022227
     5  Na   0.169183   0.294707
     6  Na   0.093332   0.234553
     7  Na   0.097487   0.234573
 Sum of Mulliken charges =  -0.00000   1.00000

 Dipole moment (field-independent basis, Debye):
    X=              0.3992    Y=             -0.0005    Z=              0.2172  Tot=              0.4544
 Quadrupole moment (field-independent basis, Debye-Ang):
   XX=            -48.1340   YY=            -78.8320   ZZ=            -68.0210
   XY=             -0.0031   XZ=             -1.6953   YZ=             -0.0103

 Normal termination of Gaussian 16 at Mon Nov 13 18:03:48 2023.
