 Gaussian 16, Revision B.01,
 Gaussian 16:  ES64L-G16RevB.01 20-Dec-2017

 -------------------------
 #P B3LYP/6-311+g(d) force
 -------------------------

 ------------------------------
 Gaussian input prepared by ASE
 ------------------------------
 Symbolic Z-matrix:
 Charge =  0 Multiplicity = 2

                         Standard orientation:
 ---------------------------------------------------------------------
 Center     Atomic      Atomic             Coordinates (Angstroms)
 Number     Number       Type             X           Y           Z
 ---------------------------------------------------------------------
      1         11           0       -3.650823    0.854065   -0.441293
      2         11           0        4.586749   -0.056366   -0.783658
      3         11           0        2.519974   -1.426696    0.897183
      4         11           0        1.988748    1.321414   -0.180087
      5         11           0       -0.924676    1.847301    0.326295
      6         11           0       -1.970653   -0.730198    1.460615
      7         11           0       -2.549319   -1.809520   -1.279054
 ---------------------------------------------------------------------

 SCF Done:  E(UB3LYP) =  -1136.09409492     A.U. after   26 cycles

 The electronic state is 2-A.
 Alpha  occ. eigenvalues --  -38.45080 -38.44752 -38.44336 -38.44145 -38.44096
 Alpha  occ. eigenvalues --  -38.43955 -38.42195  -2.20964  -2.20746  -2.20344
 Alpha  occ. eigenvalues --   -2.20062  -2.20003  -2.19928  -2.18184  -1.14703
 Alpha  occ. eigenvalues --   -1.14623  -1.14595  -1.14501  -1.14437  -1.14367
 Alpha  occ. eigenvalues --   -1.14027  -1.14005  -1.13962  -1.13817  -1.13695
 Alpha  occ. eigenvalues --   -1.13682  -1.13656  -1.13636  -1.13616  -1.13607
 Alpha  occ. eigenvalues --   -1.13587  -1.13519  -1.11885  -1.11832  -1.11816
 Alpha  occ. eigenvalues --   -0.18355  -0.15765  -0.11080  -0.10645
 Alpha virt. eigenvalues --   -0.06759  -0.05905  -0.04468  -0.03328  -0.02931
 Alpha virt. eigenvalues --   -0.02225  -0.01850  -0.01278  -0.00747  -0.00383
 Alpha virt. eigenvalues --    0.00041   0.00081   0.00344   0.00570   0.00641

  Beta  occ. eigenvalues --  -38.45070 -38.44711 -38.44278 -38.44116 -38.44059
  Beta  occ. eigenvalues --  -38.43970 -38.42186  -2.20948  -2.20677  -2.20240
  Beta  occ. eigenvalues --   -2.20008  -2.19956  -2.19936  -2.18171  -1.14694
  Beta  occ. eigenvalues --   -1.14615  -1.14560  -1.14456  -1.14357  -1.14305
  Beta  occ. eigenvalues --   -1.13961  -1.13918  -1.13882  -1.13795  -1.13669
  Beta  occ. eigenvalues --   -1.13648  -1.13615  -1.13609  -1.13606  -1.13586
  Beta  occ. eigenvalues --   -1.13543  -1.13526  -1.11890  -1.11813  -1.11784
  Beta  occ. eigenvalues --   -0.17686  -0.15485  -0.10966
  Beta virt. eigenvalues --   -0.06924  -0.06575  -0.05250  -0.04226  -0.03200
  Beta virt. eigenvalues --   -0.02758  -0.01640  -0.01379  -0.00906  -0.00377
  Beta virt. eigenvalues --   -0.00219   0.00074   0.00239   0.00422   0.00658

 Mulliken charges and spin densities:
               1          2
     1  Na   0.770303   0.315816
     2  Na   1.259134  -0.155905
     3  Na  -0.123438  -0.009610
     4  Na  -1.018657  -0.099817
     5  Na  -0.131425   0.319245
     6  Na  -0.980177   0.596554
     7  Na   0.224259   0.033718
 Sum of Mulliken charges =  -0.00000   1.00000

 Dipole moment (field-independent basis, Debye):
    X=              0.7048    Y=             -0.7511    Z=             -0.2069  Tot=              1.0506
 Quadrupole moment (field-independent basis, Debye-Ang):
   XX=            -60.7544   YY=            -74.6790   ZZ=            -65.2834
   XY=             -3.0483   XZ=             -2.7954   YZ=             -1.7921

 Normal termination of Gaussian 16 at Mon Nov 13 15:37:42 2023.
