 Gaussian 16, Revision B.01,
 Gaussian 16:  ES64L-G16RevB.01 20-Dec-2017

 -------------------------
 #P B3LYP/6-311+g(d) force
 -------------------------

 ------------------------------
 Gaussian input prepared by ASE
 ------------------------------
 Symbolic Z-matrix:
 Charge =  0 Multiplicity = 2

                         Standard orientation:
 ---------------------------------------------------------------------
 Center     Atomic      Atomic             Coordinates (Angstroms)
 Number     Number       Type             X           Y           Z
 ---------------------------------------------------------------------
      1         11           0       -4.243961   -1.165881    0.158447
      2         11           0       -1.607560   -2.563106    0.384411
      3         11           0       -2.647541    2.887588    0.135447
      4         11           0       -1.745869    0.184539   -0.815773
      5         11           0        1.154748    0.842784   -0.409671
      6         11           0        3.634325    0.581895    1.255684
      7         11           0        5.455857   -0.767819   -0.708545
 ---------------------------------------------------------------------

 SCF Done:  E(UB3LYP) =  -1136.10241637     A.U. after   20 cycles

 The electronic state is 2-A.
 Alpha  occ. eigenvalues --  -38.44854 -38.44721 -38.44053 -38.43730 -38.43677
 Alpha  occ. eigenvalues --  -38.43592 -38.43089  -2.20677  -2.20595  -2.19956
 Alpha  occ. eigenvalues --   -2.19632  -2.19584  -2.19420  -2.19187  -1.14437
 Alpha  occ. eigenvalues --   -1.14322  -1.14314  -1.14293  -1.14227  -1.14163
 Alpha  occ. eigenvalues --   -1.13707  -1.13619  -1.13579  -1.13376  -1.13311
 Alpha  occ. eigenvalues --   -1.13280  -1.13218  -1.13210  -1.13177  -1.13157
 Alpha  occ. eigenvalues --   -1.13066  -1.13024  -1.12876  -1.12828  -1.12755
 Alpha  occ. eigenvalues --   -0.17343  -0.14892  -0.11544  -0.10884
 Alpha virt. eigenvalues --   -0.06448  -0.05090  -0.04054  -0.03667  -0.03398
 Alpha virt. eigenvalues --   -0.02310  -0.01502  -0.01200  -0.01074  -0.00404
 Alpha virt. eigenvalues --   -0.00319   0.00105   0.00495   0.00571   0.00672

  Beta  occ. eigenvalues --  -38.44799 -38.44726 -38.44033 -38.43682 -38.43653
  Beta  occ. eigenvalues --  -38.43544 -38.43070  -2.20612  -2.20571  -2.19920
  Beta  occ. eigenvalues --   -2.19544  -2.19541  -2.19330  -2.19162  -1.14391
  Beta  occ. eigenvalues --   -1.14308  -1.14257  -1.14231  -1.14225  -1.14132
  Beta  occ. eigenvalues --   -1.13687  -1.13591  -1.13544  -1.13322  -1.13278
  Beta  occ. eigenvalues --   -1.13213  -1.13190  -1.13156  -1.13140  -1.13098
  Beta  occ. eigenvalues --   -1.13007  -1.12957  -1.12822  -1.12792  -1.12731
  Beta  occ. eigenvalues --   -0.16629  -0.14474  -0.11293
  Beta virt. eigenvalues --   -0.07440  -0.05911  -0.04672  -0.03926  -0.03360
  Beta virt. eigenvalues --   -0.03030  -0.02089  -0.01358  -0.00881  -0.00587
  Beta virt. eigenvalues --   -0.00267  -0.00103   0.00227   0.00595   0.00636

 Mulliken charges and spin densities:
               1          2
     1  Na   0.819819   0.049676
     2  Na   0.058298   0.151851
     3  Na   0.303053   0.390486
     4  Na  -1.198294  -0.005430
     5  Na  -0.727682  -0.031364
     6  Na   0.560873   0.183380
     7  Na   0.183934   0.261401
 Sum of Mulliken charges =  -0.00000   1.00000

 Dipole moment (field-independent basis, Debye):
    X=              0.9610    Y=             -0.5296    Z=              0.5070  Tot=              1.2087
 Quadrupole moment (field-independent basis, Debye-Ang):
   XX=            -59.7988   YY=            -69.7943   ZZ=            -66.2947
   XY=             -3.4430   XZ=             -3.4425   YZ=              3.5156

 Normal termination of Gaussian 16 at Mon Nov 13 15:01:20 2023.
