 Gaussian 16, Revision B.01,
 Gaussian 16:  ES64L-G16RevB.01 20-Dec-2017

 -------------------------
 #P B3LYP/6-311+g(d) force
 -------------------------

 ------------------------------
 Gaussian input prepared by ASE
 ------------------------------
 Symbolic Z-matrix:
 Charge =  0 Multiplicity = 2

                         Standard orientation:
 ---------------------------------------------------------------------
 Center     Atomic      Atomic             Coordinates (Angstroms)
 Number     Number       Type             X           Y           Z
 ---------------------------------------------------------------------
      1         11           0       -1.186146    2.718009    0.172791
      2         11           0        1.734734    2.705773   -0.487719
      3         11           0        3.792059   -1.629568   -0.562025
      4         11           0        1.765538    0.037373    0.876046
      5         11           0       -3.992524   -0.352514   -0.581987
      6         11           0       -1.206298   -0.265578    0.532368
      7         11           0       -0.907363   -3.213496    0.050525
 ---------------------------------------------------------------------

 SCF Done:  E(UB3LYP) =  -1136.10600199     A.U. after   21 cycles

 The electronic state is 2-A.
 Alpha  occ. eigenvalues --  -38.45184 -38.44583 -38.44291 -38.43847 -38.43711
 Alpha  occ. eigenvalues --  -38.43577 -38.43393  -2.21065  -2.20402  -2.20185
 Alpha  occ. eigenvalues --   -2.19697  -2.19692  -2.19476  -2.19413  -1.14765
 Alpha  occ. eigenvalues --   -1.14737  -1.14702  -1.14105  -1.14050  -1.14004
 Alpha  occ. eigenvalues --   -1.13918  -1.13850  -1.13789  -1.13515  -1.13410
 Alpha  occ. eigenvalues --   -1.13369  -1.13342  -1.13333  -1.13296  -1.13119
 Alpha  occ. eigenvalues --   -1.13100  -1.13091  -1.13044  -1.13027  -1.13025
 Alpha  occ. eigenvalues --   -0.18111  -0.13861  -0.13008  -0.09942
 Alpha virt. eigenvalues --   -0.06616  -0.05653  -0.04555  -0.03231  -0.02604
 Alpha virt. eigenvalues --   -0.01976  -0.01876  -0.01418  -0.01041  -0.00673
 Alpha virt. eigenvalues --    0.00117   0.00287   0.00487   0.00645   0.00680

  Beta  occ. eigenvalues --  -38.45186 -38.44539 -38.44294 -38.43772 -38.43703
  Beta  occ. eigenvalues --  -38.43505 -38.43372  -2.21070  -2.20322  -2.20194
  Beta  occ. eigenvalues --   -2.19690  -2.19555  -2.19445  -2.19278  -1.14773
  Beta  occ. eigenvalues --   -1.14738  -1.14701  -1.14050  -1.13994  -1.13951
  Beta  occ. eigenvalues --   -1.13926  -1.13859  -1.13772  -1.13451  -1.13374
  Beta  occ. eigenvalues --   -1.13345  -1.13317  -1.13239  -1.13197  -1.13102
  Beta  occ. eigenvalues --   -1.13077  -1.13018  -1.12956  -1.12944  -1.12929
  Beta  occ. eigenvalues --   -0.17741  -0.13321  -0.12365
  Beta virt. eigenvalues --   -0.06599  -0.06423  -0.05445  -0.04434  -0.02739
  Beta virt. eigenvalues --   -0.02326  -0.01647  -0.01397  -0.01284  -0.00874
  Beta virt. eigenvalues --   -0.00401   0.00333   0.00476   0.00536   0.00694

 Mulliken charges and spin densities:
               1          2
     1  Na   0.097556  -0.048138
     2  Na   0.628734   0.036404
     3  Na   0.076435   0.367481
     4  Na  -1.186084  -0.029720
     5  Na   0.777936   0.367940
     6  Na  -0.991908   0.202780
     7  Na   0.597332   0.103254
 Sum of Mulliken charges =  -0.00000   1.00000

 Dipole moment (field-independent basis, Debye):
    X=             -0.1519    Y=              0.3123    Z=             -0.6344  Tot=              0.7232
 Quadrupole moment (field-independent basis, Debye-Ang):
   XX=            -73.1990   YY=            -55.7108   ZZ=            -70.0987
   XY=              5.6477   XZ=             -1.4004   YZ=              1.3704

 Normal termination of Gaussian 16 at Mon Nov 13 18:26:30 2023.
