 Gaussian 16, Revision B.01,
 Gaussian 16:  ES64L-G16RevB.01 20-Dec-2017

 -------------------------
 #P B3LYP/6-311+g(d) force
 -------------------------

 ------------------------------
 Gaussian input prepared by ASE
 ------------------------------
 Symbolic Z-matrix:
 Charge =  0 Multiplicity = 2

                         Standard orientation:
 ---------------------------------------------------------------------
 Center     Atomic      Atomic             Coordinates (Angstroms)
 Number     Number       Type             X           Y           Z
 ---------------------------------------------------------------------
      1         11           0       -0.927717   -0.329109    1.571121
      2         11           0       -0.499103   -0.524074   -1.388809
      3         11           0       -3.056342   -1.517267   -0.176708
      4         11           0       -2.497132    1.427147   -0.288684
      5         11           0        0.435386    1.904274    0.106587
      6         11           0        1.842650   -0.716615    0.480096
      7         11           0        4.702259   -0.244356   -0.303603
 ---------------------------------------------------------------------

 SCF Done:  E(UB3LYP) =  -1136.08225908     A.U. after   31 cycles

 The electronic state is 2-A.
 Alpha  occ. eigenvalues --  -38.45565 -38.45100 -38.44355 -38.43851 -38.43544
 Alpha  occ. eigenvalues --  -38.43136 -38.42536  -2.21707  -2.20896  -2.20451
 Alpha  occ. eigenvalues --   -2.20066  -2.19610  -2.19129  -2.18632  -1.15449
 Alpha  occ. eigenvalues --   -1.15406  -1.15326  -1.14593  -1.14537  -1.14531
 Alpha  occ. eigenvalues --   -1.14200  -1.14113  -1.14060  -1.13805  -1.13719
 Alpha  occ. eigenvalues --   -1.13644  -1.13327  -1.13241  -1.13232  -1.12825
 Alpha  occ. eigenvalues --   -1.12778  -1.12752  -1.12341  -1.12265  -1.12252
 Alpha  occ. eigenvalues --   -0.20642  -0.14514  -0.11690  -0.11208
 Alpha virt. eigenvalues --   -0.08103  -0.04243  -0.03956  -0.03340  -0.02999
 Alpha virt. eigenvalues --   -0.01988  -0.01948  -0.01165  -0.00948  -0.00364
 Alpha virt. eigenvalues --    0.00053   0.00348   0.00361   0.00715   0.00846

  Beta  occ. eigenvalues --  -38.45527 -38.45087 -38.44310 -38.43760 -38.43513
  Beta  occ. eigenvalues --  -38.43137 -38.42527  -2.21646  -2.20871  -2.20372
  Beta  occ. eigenvalues --   -2.19904  -2.19562  -2.19137  -2.18620  -1.15401
  Beta  occ. eigenvalues --   -1.15343  -1.15261  -1.14579  -1.14520  -1.14512
  Beta  occ. eigenvalues --   -1.14150  -1.14044  -1.13998  -1.13691  -1.13610
  Beta  occ. eigenvalues --   -1.13517  -1.13308  -1.13212  -1.13132  -1.12833
  Beta  occ. eigenvalues --   -1.12781  -1.12722  -1.12346  -1.12243  -1.12209
  Beta  occ. eigenvalues --   -0.19830  -0.14276  -0.11171
  Beta virt. eigenvalues --   -0.07871  -0.07291  -0.04209  -0.03566  -0.03033
  Beta virt. eigenvalues --   -0.02733  -0.01372  -0.01240  -0.00922  -0.00629
  Beta virt. eigenvalues --   -0.00249   0.00076   0.00397   0.00503   0.00764

 Mulliken charges and spin densities:
               1          2
     1  Na   1.110012   0.145438
     2  Na   0.113912   0.439708
     3  Na   0.102333  -0.128982
     4  Na   0.094227   0.187592
     5  Na  -0.668795   0.089655
     6  Na  -0.875481   0.096929
     7  Na   0.123793   0.169661
 Sum of Mulliken charges =  -0.00000   1.00000

 Dipole moment (field-independent basis, Debye):
    X=              0.1819    Y=              0.7556    Z=              0.1838  Tot=              0.7986
 Quadrupole moment (field-independent basis, Debye-Ang):
   XX=            -54.2857   YY=            -73.9493   ZZ=            -69.1310
   XY=              0.0525   XZ=             -2.5353   YZ=              1.1024

 Normal termination of Gaussian 16 at Mon Nov 13 17:02:32 2023.
