 Gaussian 16, Revision B.01,
 Gaussian 16:  ES64L-G16RevB.01 20-Dec-2017

 -------------------------
 #P B3LYP/6-311+g(d) force
 -------------------------

 ------------------------------
 Gaussian input prepared by ASE
 ------------------------------
 Symbolic Z-matrix:
 Charge =  0 Multiplicity = 2

                         Standard orientation:
 ---------------------------------------------------------------------
 Center     Atomic      Atomic             Coordinates (Angstroms)
 Number     Number       Type             X           Y           Z
 ---------------------------------------------------------------------
      1         11           0        0.344312   -0.844820   -1.445529
      2         11           0        0.205012   -1.560334    1.465704
      3         11           0       -2.271899   -1.623669   -0.211860
      4         11           0       -3.056163    1.252152    0.091691
      5         11           0       -0.216952    1.965868   -0.530339
      6         11           0        1.779312    0.996900    1.493540
      7         11           0        3.216379   -0.186097   -0.863209
 ---------------------------------------------------------------------

 SCF Done:  E(UB3LYP) =  -1136.10612167     A.U. after   22 cycles

 The electronic state is 2-A.
 Alpha  occ. eigenvalues --  -38.45270 -38.44451 -38.44052 -38.43801 -38.43646
 Alpha  occ. eigenvalues --  -38.43345 -38.43126  -2.21174  -2.20331  -2.20066
 Alpha  occ. eigenvalues --   -2.19908  -2.19630  -2.19353  -2.19107  -1.14882
 Alpha  occ. eigenvalues --   -1.14852  -1.14774  -1.14038  -1.14020  -1.13961
 Alpha  occ. eigenvalues --   -1.13781  -1.13722  -1.13684  -1.13658  -1.13581
 Alpha  occ. eigenvalues --   -1.13558  -1.13334  -1.13264  -1.13242  -1.13019
 Alpha  occ. eigenvalues --   -1.12963  -1.12942  -1.12792  -1.12771  -1.12709
 Alpha  occ. eigenvalues --   -0.19897  -0.14348  -0.11711  -0.11659
 Alpha virt. eigenvalues --   -0.06707  -0.04860  -0.04049  -0.03471  -0.02706
 Alpha virt. eigenvalues --   -0.02539  -0.02369  -0.00644  -0.00268   0.00158
 Alpha virt. eigenvalues --    0.00293   0.00393   0.00679   0.00867   0.00944

  Beta  occ. eigenvalues --  -38.45238 -38.44459 -38.43992 -38.43740 -38.43643
  Beta  occ. eigenvalues --  -38.43292 -38.43109  -2.21119  -2.20348  -2.19959
  Beta  occ. eigenvalues --   -2.19798  -2.19627  -2.19259  -2.19080  -1.14828
  Beta  occ. eigenvalues --   -1.14809  -1.14734  -1.14051  -1.14030  -1.13965
  Beta  occ. eigenvalues --   -1.13705  -1.13634  -1.13606  -1.13583  -1.13514
  Beta  occ. eigenvalues --   -1.13479  -1.13313  -1.13250  -1.13231  -1.12962
  Beta  occ. eigenvalues --   -1.12885  -1.12871  -1.12776  -1.12722  -1.12693
  Beta  occ. eigenvalues --   -0.19159  -0.14123  -0.11549
  Beta virt. eigenvalues --   -0.07461  -0.06590  -0.04724  -0.03423  -0.03313
  Beta virt. eigenvalues --   -0.02275  -0.01945  -0.01584  -0.00561  -0.00032
  Beta virt. eigenvalues --    0.00224   0.00317   0.00420   0.00814   0.00893

 Mulliken charges and spin densities:
               1          2
     1  Na  -1.010360   0.271028
     2  Na  -0.578026   0.257153
     3  Na   1.409848   0.165346
     4  Na  -0.541014  -0.091794
     5  Na   0.086462   0.231861
     6  Na   0.417596   0.225467
     7  Na   0.215494  -0.059061
 Sum of Mulliken charges =  -0.00000   1.00000

 Dipole moment (field-independent basis, Debye):
    X=              0.4540    Y=             -0.0864    Z=              0.1237  Tot=              0.4784
 Quadrupole moment (field-independent basis, Debye-Ang):
   XX=            -48.8348   YY=            -76.4976   ZZ=            -69.9928
   XY=              0.8056   XZ=             -1.4929   YZ=              1.0809

 Normal termination of Gaussian 16 at Mon Nov 13 16:03:32 2023.
