 Gaussian 16, Revision B.01,
 Gaussian 16:  ES64L-G16RevB.01 20-Dec-2017

 -------------------------
 #P B3LYP/6-311+g(d) force
 -------------------------

 ------------------------------
 Gaussian input prepared by ASE
 ------------------------------
 Symbolic Z-matrix:
 Charge =  0 Multiplicity = 2

                         Standard orientation:
 ---------------------------------------------------------------------
 Center     Atomic      Atomic             Coordinates (Angstroms)
 Number     Number       Type             X           Y           Z
 ---------------------------------------------------------------------
      1         11           0       -0.333268   -1.190122    0.556054
      2         11           0       -2.474866   -0.626671   -1.464018
      3         11           0       -2.866565    0.178808    1.392168
      4         11           0       -0.876376    1.632839   -0.306940
      5         11           0        2.130020    1.708502   -0.372374
      6         11           0        1.988351   -1.126591   -1.355525
      7         11           0        2.432704   -0.576765    1.550635
 ---------------------------------------------------------------------

 SCF Done:  E(UB3LYP) =  -1136.09399264     A.U. after   26 cycles

 The electronic state is 2-A.
 Alpha  occ. eigenvalues --  -38.45078 -38.45050 -38.44564 -38.44497 -38.43023
 Alpha  occ. eigenvalues --  -38.42947 -38.42677  -2.21070  -2.21036  -2.20558
 Alpha  occ. eigenvalues --   -2.20482  -2.19120  -2.19015  -2.18746  -1.14874
 Alpha  occ. eigenvalues --   -1.14752  -1.14724  -1.14694  -1.14650  -1.14565
 Alpha  occ. eigenvalues --   -1.14359  -1.14237  -1.14185  -1.14161  -1.14117
 Alpha  occ. eigenvalues --   -1.14032  -1.12838  -1.12800  -1.12769  -1.12723
 Alpha  occ. eigenvalues --   -1.12675  -1.12668  -1.12414  -1.12393  -1.12342
 Alpha  occ. eigenvalues --   -0.20132  -0.15339  -0.11433  -0.10855
 Alpha virt. eigenvalues --   -0.06521  -0.05712  -0.04682  -0.03067  -0.02204
 Alpha virt. eigenvalues --   -0.02071  -0.01980  -0.01069  -0.00249   0.00092
 Alpha virt. eigenvalues --    0.00249   0.00413   0.00639   0.00664   0.00758

  Beta  occ. eigenvalues --  -38.45041 -38.45010 -38.44531 -38.44469 -38.43018
  Beta  occ. eigenvalues --  -38.42910 -38.42663  -2.21002  -2.20963  -2.20499
  Beta  occ. eigenvalues --   -2.20431  -2.19064  -2.19009  -2.18726  -1.14837
  Beta  occ. eigenvalues --   -1.14690  -1.14665  -1.14644  -1.14597  -1.14510
  Beta  occ. eigenvalues --   -1.14328  -1.14185  -1.14143  -1.14117  -1.14078
  Beta  occ. eigenvalues --   -1.13992  -1.12809  -1.12745  -1.12722  -1.12677
  Beta  occ. eigenvalues --   -1.12672  -1.12637  -1.12405  -1.12345  -1.12318
  Beta  occ. eigenvalues --   -0.19342  -0.15158  -0.10669
  Beta virt. eigenvalues --   -0.07517  -0.06295  -0.04829  -0.04587  -0.02831
  Beta virt. eigenvalues --   -0.02097  -0.01499  -0.01436  -0.00459  -0.00221
  Beta virt. eigenvalues --    0.00300   0.00318   0.00562   0.00716   0.00757

 Mulliken charges and spin densities:
               1          2
     1  Na  -0.674340   0.639252
     2  Na   0.327900  -0.074882
     3  Na   0.955382  -0.308107
     4  Na  -0.699510   0.717031
     5  Na   0.055221  -0.395314
     6  Na   0.086484   0.388866
     7  Na  -0.051138   0.033153
 Sum of Mulliken charges =  -0.00000   1.00000

 Dipole moment (field-independent basis, Debye):
    X=             -0.6633    Y=             -0.2817    Z=             -0.0766  Tot=              0.7247
 Quadrupole moment (field-independent basis, Debye-Ang):
   XX=            -47.8227   YY=            -82.0045   ZZ=            -64.1800
   XY=             -0.0426   XZ=              0.0512   YZ=              4.7305

 Normal termination of Gaussian 16 at Mon Nov 13 17:38:11 2023.
