 Gaussian 16, Revision B.01,
 Gaussian 16:  ES64L-G16RevB.01 20-Dec-2017

 -------------------------
 #P B3LYP/6-311+g(d) force
 -------------------------

 ------------------------------
 Gaussian input prepared by ASE
 ------------------------------
 Symbolic Z-matrix:
 Charge =  0 Multiplicity = 2

                         Standard orientation:
 ---------------------------------------------------------------------
 Center     Atomic      Atomic             Coordinates (Angstroms)
 Number     Number       Type             X           Y           Z
 ---------------------------------------------------------------------
      1         11           0        0.076542   -0.041191   -1.704439
      2         11           0        0.076972   -0.041758    1.704779
      3         11           0        2.048047   -1.496020   -0.000382
      4         11           0        2.108479    1.302007   -0.000447
      5         11           0       -0.584035    2.030306    0.000833
      6         11           0       -1.021313   -1.919623    0.000309
      7         11           0       -2.704691    0.166279   -0.000653
 ---------------------------------------------------------------------

 SCF Done:  E(UB3LYP) =  -1136.07461467     A.U. after   18 cycles

 The electronic state is 2-A.
 Alpha  occ. eigenvalues --  -38.44292 -38.44101 -38.44100 -38.43811 -38.43604
 Alpha  occ. eigenvalues --  -38.43592 -38.43428  -2.20398  -2.20387  -2.20374
 Alpha  occ. eigenvalues --   -2.19960  -2.19791  -2.19686  -2.19638  -1.14375
 Alpha  occ. eigenvalues --   -1.14254  -1.14178  -1.14153  -1.14145  -1.14116
 Alpha  occ. eigenvalues --   -1.14028  -1.14006  -1.13931  -1.13768  -1.13674
 Alpha  occ. eigenvalues --   -1.13545  -1.13412  -1.13368  -1.13358  -1.13307
 Alpha  occ. eigenvalues --   -1.13280  -1.13247  -1.13223  -1.13217  -1.13136
 Alpha  occ. eigenvalues --   -0.21819  -0.14219  -0.12836  -0.12153
 Alpha virt. eigenvalues --   -0.05430  -0.04384  -0.03923  -0.03783  -0.03007
 Alpha virt. eigenvalues --   -0.02623  -0.01265  -0.00480  -0.00050   0.00331
 Alpha virt. eigenvalues --    0.00714   0.00773   0.01009   0.01143   0.01206

  Beta  occ. eigenvalues --  -38.44284 -38.44007 -38.44006 -38.43797 -38.43586
  Beta  occ. eigenvalues --  -38.43581 -38.43410  -2.20368  -2.20228  -2.20217
  Beta  occ. eigenvalues --   -2.19942  -2.19768  -2.19671  -2.19614  -1.14331
  Beta  occ. eigenvalues --   -1.14203  -1.14128  -1.14080  -1.14028  -1.14013
  Beta  occ. eigenvalues --   -1.13930  -1.13926  -1.13853  -1.13756  -1.13639
  Beta  occ. eigenvalues --   -1.13473  -1.13392  -1.13346  -1.13282  -1.13275
  Beta  occ. eigenvalues --   -1.13245  -1.13231  -1.13217  -1.13130  -1.13127
  Beta  occ. eigenvalues --   -0.21000  -0.13827  -0.12461
  Beta virt. eigenvalues --   -0.07942  -0.05468  -0.04369  -0.03882  -0.02782
  Beta virt. eigenvalues --   -0.02084  -0.01561  -0.01182  -0.00443   0.00088
  Beta virt. eigenvalues --    0.00362   0.00706   0.00744   0.01034   0.01144

 Mulliken charges and spin densities:
               1          2
     1  Na  -0.378224   0.456994
     2  Na  -0.378072   0.457059
     3  Na   0.146072  -0.002030
     4  Na   0.159813   0.013565
     5  Na   0.317996   0.077147
     6  Na   0.272385   0.065664
     7  Na  -0.139971  -0.068399
 Sum of Mulliken charges =  -0.00000   1.00000

 Dipole moment (field-independent basis, Debye):
    X=             -0.0200    Y=             -0.1055    Z=              0.0000  Tot=              0.1074
 Quadrupole moment (field-independent basis, Debye-Ang):
   XX=            -57.6742   YY=            -70.1587   ZZ=            -69.6730
   XY=             -0.5205   XZ=             -0.0000   YZ=              0.0007

 Normal termination of Gaussian 16 at Mon Nov 13 17:11:07 2023.
