 Gaussian 16, Revision B.01,
 Gaussian 16:  ES64L-G16RevB.01 20-Dec-2017

 -------------------------
 #P B3LYP/6-311+g(d) force
 -------------------------

 ------------------------------
 Gaussian input prepared by ASE
 ------------------------------
 Symbolic Z-matrix:
 Charge =  0 Multiplicity = 2

                         Standard orientation:
 ---------------------------------------------------------------------
 Center     Atomic      Atomic             Coordinates (Angstroms)
 Number     Number       Type             X           Y           Z
 ---------------------------------------------------------------------
      1         11           0        1.355094    2.005718   -0.029246
      2         11           0        0.684253    0.105323   -1.837500
      3         11           0        0.844589   -0.147659    1.888292
      4         11           0        2.716050   -0.737563    0.031235
      5         11           0       -0.091226   -1.934538   -0.236606
      6         11           0       -1.404808    0.766921    0.129711
      7         11           0       -4.103952   -0.058203    0.054115
 ---------------------------------------------------------------------

 SCF Done:  E(UB3LYP) =  -1136.06802314     A.U. after   27 cycles

 The electronic state is 2-A.
 Alpha  occ. eigenvalues --  -38.46136 -38.44894 -38.44807 -38.44698 -38.43250
 Alpha  occ. eigenvalues --  -38.42969 -38.42565  -2.21931  -2.21062  -2.21021
 Alpha  occ. eigenvalues --   -2.20875  -2.19422  -2.19086  -2.18700  -1.15677
 Alpha  occ. eigenvalues --   -1.15568  -1.15548  -1.15036  -1.14912  -1.14792
 Alpha  occ. eigenvalues --   -1.14726  -1.14590  -1.14575  -1.14504  -1.14437
 Alpha  occ. eigenvalues --   -1.14351  -1.13199  -1.13078  -1.13027  -1.12810
 Alpha  occ. eigenvalues --   -1.12745  -1.12607  -1.12408  -1.12343  -1.12289
 Alpha  occ. eigenvalues --   -0.21240  -0.13994  -0.12273  -0.11687
 Alpha virt. eigenvalues --   -0.07538  -0.03773  -0.03555  -0.03520  -0.02624
 Alpha virt. eigenvalues --   -0.02555  -0.02418  -0.00540  -0.00432  -0.00010
 Alpha virt. eigenvalues --    0.00308   0.00350   0.00474   0.00839   0.01128

  Beta  occ. eigenvalues --  -38.46157 -38.44867 -38.44702 -38.44597 -38.43229
  Beta  occ. eigenvalues --  -38.42948 -38.42548  -2.21969  -2.20987  -2.20861
  Beta  occ. eigenvalues --   -2.20697  -2.19390  -2.19057  -2.18679  -1.15703
  Beta  occ. eigenvalues --   -1.15591  -1.15574  -1.14970  -1.14805  -1.14660
  Beta  occ. eigenvalues --   -1.14602  -1.14545  -1.14459  -1.14400  -1.14312
  Beta  occ. eigenvalues --   -1.14248  -1.13193  -1.13017  -1.12992  -1.12791
  Beta  occ. eigenvalues --   -1.12670  -1.12590  -1.12399  -1.12276  -1.12268
  Beta  occ. eigenvalues --   -0.20346  -0.13861  -0.11304
  Beta virt. eigenvalues --   -0.07964  -0.07333  -0.03548  -0.03312  -0.02928
  Beta virt. eigenvalues --   -0.02465  -0.01737  -0.01643  -0.00528  -0.00145
  Beta virt. eigenvalues --    0.00045   0.00340   0.00462   0.00590   0.00902

 Mulliken charges and spin densities:
               1          2
     1  Na  -0.271963  -0.022157
     2  Na  -0.598432   0.368457
     3  Na  -0.403079   0.397909
     4  Na   0.580709   0.114890
     5  Na  -0.003951   0.001378
     6  Na  -0.115368   0.207950
     7  Na   0.812083  -0.068428
 Sum of Mulliken charges =  -0.00000   1.00000

 Dipole moment (field-independent basis, Debye):
    X=             -1.1071    Y=             -0.3046    Z=              0.0959  Tot=              1.1522
 Quadrupole moment (field-independent basis, Debye-Ang):
   XX=            -45.6901   YY=            -78.0832   ZZ=            -68.2551
   XY=              1.4137   XZ=              0.0702   YZ=              0.5934

 Normal termination of Gaussian 16 at Mon Nov 13 15:49:41 2023.
