 Gaussian 16, Revision B.01,
 Gaussian 16:  ES64L-G16RevB.01 20-Dec-2017

 -------------------------
 #P B3LYP/6-311+g(d) force
 -------------------------

 ------------------------------
 Gaussian input prepared by ASE
 ------------------------------
 Symbolic Z-matrix:
 Charge =  0 Multiplicity = 2

                         Standard orientation:
 ---------------------------------------------------------------------
 Center     Atomic      Atomic             Coordinates (Angstroms)
 Number     Number       Type             X           Y           Z
 ---------------------------------------------------------------------
      1         11           0        0.042619   -0.001905    1.747162
      2         11           0       -0.695397    1.993075    0.001330
      3         11           0       -2.708538    0.002246    0.000081
      4         11           0        0.036609    0.000585   -1.744931
      5         11           0        2.013349    1.391013   -0.001045
      6         11           0        2.011178   -1.393353   -0.003377
      7         11           0       -0.699821   -1.991662    0.000780
 ---------------------------------------------------------------------

 SCF Done:  E(UB3LYP) =  -1136.07182167     A.U. after   18 cycles

 The electronic state is 2-A.
 Alpha  occ. eigenvalues --  -38.44268 -38.44268 -38.43992 -38.43721 -38.43719
 Alpha  occ. eigenvalues --  -38.43553 -38.43551  -2.20561  -2.20554  -2.20054
 Alpha  occ. eigenvalues --   -2.19901  -2.19856  -2.19766  -2.19762  -1.14475
 Alpha  occ. eigenvalues --   -1.14361  -1.14323  -1.14280  -1.14229  -1.14168
 Alpha  occ. eigenvalues --   -1.13869  -1.13863  -1.13767  -1.13681  -1.13655
 Alpha  occ. eigenvalues --   -1.13653  -1.13493  -1.13439  -1.13368  -1.13359
 Alpha  occ. eigenvalues --   -1.13338  -1.13337  -1.13329  -1.13224  -1.13171
 Alpha  occ. eigenvalues --   -0.21936  -0.14057  -0.12965  -0.12332
 Alpha virt. eigenvalues --   -0.05260  -0.04235  -0.04049  -0.03715  -0.03193
 Alpha virt. eigenvalues --   -0.02763  -0.01170  -0.00430  -0.00077   0.00336
 Alpha virt. eigenvalues --    0.00761   0.00862   0.01031   0.01173   0.01256

  Beta  occ. eigenvalues --  -38.44172 -38.44171 -38.43985 -38.43708 -38.43706
  Beta  occ. eigenvalues --  -38.43535 -38.43533  -2.20387  -2.20379  -2.20046
  Beta  occ. eigenvalues --   -2.19883  -2.19838  -2.19743  -2.19737  -1.14390
  Beta  occ. eigenvalues --   -1.14250  -1.14193  -1.14172  -1.14124  -1.14039
  Beta  occ. eigenvalues --   -1.13863  -1.13862  -1.13752  -1.13657  -1.13639
  Beta  occ. eigenvalues --   -1.13606  -1.13420  -1.13369  -1.13346  -1.13324
  Beta  occ. eigenvalues --   -1.13322  -1.13280  -1.13248  -1.13218  -1.13165
  Beta  occ. eigenvalues --   -0.21103  -0.13671  -0.12572
  Beta virt. eigenvalues --   -0.08105  -0.05302  -0.04221  -0.04005  -0.02730
  Beta virt. eigenvalues --   -0.02234  -0.01696  -0.01095  -0.00391   0.00065
  Beta virt. eigenvalues --    0.00365   0.00760   0.00832   0.01058   0.01168

 Mulliken charges and spin densities:
               1          2
     1  Na  -0.330502   0.466768
     2  Na   0.251096   0.067638
     3  Na  -0.148863  -0.085022
     4  Na  -0.330662   0.465605
     5  Na   0.153834   0.008788
     6  Na   0.154744   0.008851
     7  Na   0.250352   0.067371
 Sum of Mulliken charges =  -0.00000   1.00000

 Dipole moment (field-independent basis, Debye):
    X=             -0.1543    Y=              0.0005    Z=              0.0029  Tot=              0.1543
 Quadrupole moment (field-independent basis, Debye-Ang):
   XX=            -58.8419   YY=            -70.3694   ZZ=            -68.7721
   XY=             -0.0039   XZ=             -0.0112   YZ=              0.0051

 Normal termination of Gaussian 16 at Mon Nov 13 20:22:54 2023.
