 Gaussian 16, Revision B.01,
 Gaussian 16:  ES64L-G16RevB.01 20-Dec-2017

 -------------------------
 #P B3LYP/6-311+g(d) force
 -------------------------

 ------------------------------
 Gaussian input prepared by ASE
 ------------------------------
 Symbolic Z-matrix:
 Charge =  0 Multiplicity = 2

                         Standard orientation:
 ---------------------------------------------------------------------
 Center     Atomic      Atomic             Coordinates (Angstroms)
 Number     Number       Type             X           Y           Z
 ---------------------------------------------------------------------
      1         11           0        0.401576    1.036200   -0.110934
      2         11           0        0.595505   -1.149950    1.937562
      3         11           0        3.349535    1.503418   -0.402686
      4         11           0        2.243264   -1.278878   -0.560094
      5         11           0       -0.726984   -1.683114   -0.700356
      6         11           0       -3.496576   -0.529812   -0.530810
      7         11           0       -2.366321    2.102136    0.367319
 ---------------------------------------------------------------------

 SCF Done:  E(UB3LYP) =  -1136.09792009     A.U. after   24 cycles

 The electronic state is 2-A.
 Alpha  occ. eigenvalues --  -38.44900 -38.44140 -38.44044 -38.43938 -38.43811
 Alpha  occ. eigenvalues --  -38.43579 -38.43219  -2.20796  -2.20134  -2.20028
 Alpha  occ. eigenvalues --   -2.19952  -2.19746  -2.19707  -2.19289  -1.14495
 Alpha  occ. eigenvalues --   -1.14460  -1.14421  -1.13965  -1.13836  -1.13823
 Alpha  occ. eigenvalues --   -1.13760  -1.13686  -1.13664  -1.13647  -1.13572
 Alpha  occ. eigenvalues --   -1.13521  -1.13495  -1.13418  -1.13359  -1.13347
 Alpha  occ. eigenvalues --   -1.13322  -1.13253  -1.12975  -1.12922  -1.12881
 Alpha  occ. eigenvalues --   -0.19685  -0.14716  -0.11934  -0.10842
 Alpha virt. eigenvalues --   -0.06742  -0.05686  -0.03804  -0.03437  -0.02547
 Alpha virt. eigenvalues --   -0.02250  -0.01958  -0.01132  -0.00423  -0.00291
 Alpha virt. eigenvalues --    0.00119   0.00252   0.00643   0.00762   0.00929

  Beta  occ. eigenvalues --  -38.44867 -38.44126 -38.44024 -38.43861 -38.43801
  Beta  occ. eigenvalues --  -38.43550 -38.43196  -2.20735  -2.20099  -2.20004
  Beta  occ. eigenvalues --   -2.19811  -2.19705  -2.19686  -2.19250  -1.14444
  Beta  occ. eigenvalues --   -1.14423  -1.14376  -1.13935  -1.13811  -1.13772
  Beta  occ. eigenvalues --   -1.13735  -1.13652  -1.13621  -1.13597  -1.13487
  Beta  occ. eigenvalues --   -1.13476  -1.13428  -1.13375  -1.13335  -1.13308
  Beta  occ. eigenvalues --   -1.13279  -1.13221  -1.12950  -1.12891  -1.12827
  Beta  occ. eigenvalues --   -0.19044  -0.14347  -0.11700
  Beta virt. eigenvalues --   -0.07123  -0.06363  -0.05413  -0.03548  -0.02968
  Beta virt. eigenvalues --   -0.02388  -0.01750  -0.01384  -0.00811  -0.00229
  Beta virt. eigenvalues --   -0.00069   0.00203   0.00326   0.00741   0.00819

 Mulliken charges and spin densities:
               1          2
     1  Na  -2.230806   0.367457
     2  Na  -0.043961   0.123166
     3  Na   0.647987  -0.110481
     4  Na   1.479957   0.284218
     5  Na   0.322787   0.221079
     6  Na  -0.174145   0.114656
     7  Na  -0.001818  -0.000094
 Sum of Mulliken charges =  -0.00000   1.00000

 Dipole moment (field-independent basis, Debye):
    X=             -0.3419    Y=             -0.2724    Z=              0.8548  Tot=              0.9601
 Quadrupole moment (field-independent basis, Debye-Ang):
   XX=            -53.5853   YY=            -71.1890   ZZ=            -70.8940
   XY=             -1.5592   XZ=              0.3928   YZ=              0.1984

 Normal termination of Gaussian 16 at Mon Nov 13 16:16:31 2023.
