 Gaussian 16, Revision B.01,
 Gaussian 16:  ES64L-G16RevB.01 20-Dec-2017

 -------------------------
 #P B3LYP/6-311+g(d) force
 -------------------------

 ------------------------------
 Gaussian input prepared by ASE
 ------------------------------
 Symbolic Z-matrix:
 Charge =  0 Multiplicity = 2

                         Standard orientation:
 ---------------------------------------------------------------------
 Center     Atomic      Atomic             Coordinates (Angstroms)
 Number     Number       Type             X           Y           Z
 ---------------------------------------------------------------------
      1         11           0        0.655861   -2.412475   -1.021977
      2         11           0       -4.249061    0.363156   -0.750022
      3         11           0       -1.251803   -0.665379    2.645497
      4         11           0       -1.352247   -0.289233   -0.329145
      5         11           0        0.134861    2.283735   -0.744939
      6         11           0        2.825730    1.795282    0.483851
      7         11           0        3.236658   -1.075086   -0.283264
 ---------------------------------------------------------------------

 SCF Done:  E(UB3LYP) =  -1136.09679721     A.U. after   27 cycles

 The electronic state is 2-A.
 Alpha  occ. eigenvalues --  -38.45786 -38.44972 -38.44555 -38.44447 -38.43876
 Alpha  occ. eigenvalues --  -38.43645 -38.43252  -2.21591  -2.20815  -2.20428
 Alpha  occ. eigenvalues --   -2.20304  -2.19756  -2.19699  -2.19136  -1.15272
 Alpha  occ. eigenvalues --   -1.15219  -1.15211  -1.14499  -1.14420  -1.14407
 Alpha  occ. eigenvalues --   -1.14149  -1.14093  -1.14068  -1.14049  -1.13980
 Alpha  occ. eigenvalues --   -1.13932  -1.13420  -1.13404  -1.13397  -1.13381
 Alpha  occ. eigenvalues --   -1.13369  -1.13353  -1.12811  -1.12786  -1.12746
 Alpha  occ. eigenvalues --   -0.18050  -0.14059  -0.11819  -0.11169
 Alpha virt. eigenvalues --   -0.07651  -0.04723  -0.04079  -0.03658  -0.03016
 Alpha virt. eigenvalues --   -0.02873  -0.02184  -0.01068  -0.00611  -0.00230
 Alpha virt. eigenvalues --   -0.00100   0.00073   0.00545   0.00703   0.00805

  Beta  occ. eigenvalues --  -38.45732 -38.44841 -38.44556 -38.44448 -38.43879
  Beta  occ. eigenvalues --  -38.43632 -38.43244  -2.21490  -2.20572  -2.20429
  Beta  occ. eigenvalues --   -2.20308  -2.19760  -2.19686  -2.19121  -1.15206
  Beta  occ. eigenvalues --   -1.15145  -1.15141  -1.14336  -1.14254  -1.14242
  Beta  occ. eigenvalues --   -1.14148  -1.14094  -1.14067  -1.14055  -1.13975
  Beta  occ. eigenvalues --   -1.13932  -1.13426  -1.13399  -1.13394  -1.13380
  Beta  occ. eigenvalues --   -1.13357  -1.13286  -1.12804  -1.12776  -1.12728
  Beta  occ. eigenvalues --   -0.17560  -0.13648  -0.11624
  Beta virt. eigenvalues --   -0.07486  -0.07161  -0.04598  -0.03833  -0.03216
  Beta virt. eigenvalues --   -0.02845  -0.02109  -0.01656  -0.00862  -0.00276
  Beta virt. eigenvalues --   -0.00075  -0.00058   0.00118   0.00607   0.00785

 Mulliken charges and spin densities:
               1          2
     1  Na   3.042972   0.100962
     2  Na  -1.468869   0.222802
     3  Na  -0.196140   0.547104
     4  Na  -0.949854   0.043509
     5  Na  -1.099537   0.111285
     6  Na   1.195323   0.032605
     7  Na  -0.523895  -0.058268
 Sum of Mulliken charges =  -0.00000   1.00000

 Dipole moment (field-independent basis, Debye):
    X=             -0.9208    Y=              0.2312    Z=              0.6428  Tot=              1.1465
 Quadrupole moment (field-independent basis, Debye-Ang):
   XX=            -49.6737   YY=            -76.2160   ZZ=            -69.7332
   XY=             -0.6376   XZ=              2.4230   YZ=             -0.9082

 Normal termination of Gaussian 16 at Mon Nov 13 15:02:56 2023.
