 Gaussian 16, Revision B.01,
 Gaussian 16:  ES64L-G16RevB.01 20-Dec-2017

 -------------------------
 #P B3LYP/6-311+g(d) force
 -------------------------

 ------------------------------
 Gaussian input prepared by ASE
 ------------------------------
 Symbolic Z-matrix:
 Charge =  0 Multiplicity = 2

                         Standard orientation:
 ---------------------------------------------------------------------
 Center     Atomic      Atomic             Coordinates (Angstroms)
 Number     Number       Type             X           Y           Z
 ---------------------------------------------------------------------
      1         11           0        0.105002   -2.442486   -1.069202
      2         11           0       -0.040473   -1.255888    1.670066
      3         11           0       -2.491581   -1.327991   -0.059233
      4         11           0       -3.044706    1.620466    0.025360
      5         11           0       -0.251903    2.687858   -0.231518
      6         11           0        1.411670    0.202881   -0.516403
      7         11           0        4.311989    0.515160    0.180928
 ---------------------------------------------------------------------

 SCF Done:  E(UB3LYP) =  -1136.09765485     A.U. after   26 cycles

 The electronic state is 2-A.
 Alpha  occ. eigenvalues --  -38.45438 -38.44821 -38.44192 -38.44013 -38.43972
 Alpha  occ. eigenvalues --  -38.43811 -38.43101  -2.21401  -2.20631  -2.20179
 Alpha  occ. eigenvalues --   -2.19897  -2.19855  -2.19817  -2.19176  -1.15132
 Alpha  occ. eigenvalues --   -1.15050  -1.15031  -1.14318  -1.14259  -1.14256
 Alpha  occ. eigenvalues --   -1.13922  -1.13861  -1.13835  -1.13669  -1.13579
 Alpha  occ. eigenvalues --   -1.13543  -1.13521  -1.13517  -1.13479  -1.13433
 Alpha  occ. eigenvalues --   -1.13420  -1.13399  -1.12879  -1.12816  -1.12794
 Alpha  occ. eigenvalues --   -0.19058  -0.13691  -0.13056  -0.10027
 Alpha virt. eigenvalues --   -0.07485  -0.05056  -0.04775  -0.03183  -0.02790
 Alpha virt. eigenvalues --   -0.02561  -0.01691  -0.01051  -0.00499  -0.00297
 Alpha virt. eigenvalues --   -0.00115  -0.00004   0.00434   0.00707   0.00727

  Beta  occ. eigenvalues --  -38.45415 -38.44769 -38.44171 -38.44009 -38.43948
  Beta  occ. eigenvalues --  -38.43765 -38.43076  -2.21358  -2.20534  -2.20147
  Beta  occ. eigenvalues --   -2.19892  -2.19812  -2.19734  -2.19138  -1.15093
  Beta  occ. eigenvalues --   -1.15024  -1.14993  -1.14256  -1.14192  -1.14187
  Beta  occ. eigenvalues --   -1.13895  -1.13843  -1.13781  -1.13652  -1.13555
  Beta  occ. eigenvalues --   -1.13536  -1.13501  -1.13460  -1.13444  -1.13381
  Beta  occ. eigenvalues --   -1.13374  -1.13353  -1.12863  -1.12791  -1.12712
  Beta  occ. eigenvalues --   -0.18534  -0.13198  -0.12829
  Beta virt. eigenvalues --   -0.07060  -0.06553  -0.04953  -0.04554  -0.02694
  Beta virt. eigenvalues --   -0.02420  -0.02229  -0.01255  -0.00797  -0.00363
  Beta virt. eigenvalues --   -0.00098   0.00054   0.00135   0.00698   0.00765

 Mulliken charges and spin densities:
               1          2
     1  Na   1.012625  -0.192723
     2  Na  -0.356280   0.224676
     3  Na   0.514311   0.456251
     4  Na  -0.268727  -0.129830
     5  Na   0.444621   0.094002
     6  Na  -1.466315   0.388846
     7  Na   0.119765   0.158777
 Sum of Mulliken charges =  -0.00000   1.00000

 Dipole moment (field-independent basis, Debye):
    X=              0.1005    Y=             -0.3964    Z=             -0.1828  Tot=              0.4480
 Quadrupole moment (field-independent basis, Debye-Ang):
   XX=            -61.1274   YY=            -66.7872   ZZ=            -71.0087
   XY=             -0.3513   XZ=              2.0096   YZ=              2.3267

 Normal termination of Gaussian 16 at Mon Nov 13 15:59:38 2023.
