 Gaussian 16, Revision B.01,
 Gaussian 16:  ES64L-G16RevB.01 20-Dec-2017

 -------------------------
 #P B3LYP/6-311+g(d) force
 -------------------------

 ------------------------------
 Gaussian input prepared by ASE
 ------------------------------
 Symbolic Z-matrix:
 Charge =  0 Multiplicity = 2

                         Standard orientation:
 ---------------------------------------------------------------------
 Center     Atomic      Atomic             Coordinates (Angstroms)
 Number     Number       Type             X           Y           Z
 ---------------------------------------------------------------------
      1         11           0       -0.175069   -0.059267   -1.494680
      2         11           0       -0.301474   -2.068574    0.275587
      3         11           0       -2.706226   -0.546365   -0.223856
      4         11           0       -1.255766    1.894514    0.309742
      5         11           0        1.543084    1.657934   -0.358666
      6         11           0        0.448124    0.071279    1.747236
      7         11           0        2.447327   -0.949522   -0.255363
 ---------------------------------------------------------------------

 SCF Done:  E(UB3LYP) =  -1136.07134252     A.U. after   20 cycles

 The electronic state is 2-A.
 Alpha  occ. eigenvalues --  -38.44209 -38.44162 -38.44137 -38.43905 -38.43788
 Alpha  occ. eigenvalues --  -38.43472 -38.43338  -2.20550  -2.20474  -2.20209
 Alpha  occ. eigenvalues --   -2.20030  -2.19973  -2.19661  -2.19486  -1.14502
 Alpha  occ. eigenvalues --   -1.14458  -1.14279  -1.14250  -1.14189  -1.14114
 Alpha  occ. eigenvalues --   -1.13929  -1.13908  -1.13855  -1.13813  -1.13665
 Alpha  occ. eigenvalues --   -1.13615  -1.13606  -1.13545  -1.13428  -1.13281
 Alpha  occ. eigenvalues --   -1.13254  -1.13177  -1.13152  -1.13099  -1.13050
 Alpha  occ. eigenvalues --   -0.21778  -0.14193  -0.12853  -0.12101
 Alpha virt. eigenvalues --   -0.05447  -0.04316  -0.03947  -0.03690  -0.03007
 Alpha virt. eigenvalues --   -0.02592  -0.01308  -0.00470  -0.00052   0.00331
 Alpha virt. eigenvalues --    0.00698   0.00788   0.01043   0.01135   0.01204

  Beta  occ. eigenvalues --  -38.44155 -38.44112 -38.44055 -38.43890 -38.43766
  Beta  occ. eigenvalues --  -38.43452 -38.43322  -2.20406  -2.20300  -2.20200
  Beta  occ. eigenvalues --   -2.20006  -2.19945  -2.19633  -2.19464  -1.14421
  Beta  occ. eigenvalues --   -1.14371  -1.14188  -1.14132  -1.14087  -1.14005
  Beta  occ. eigenvalues --   -1.13906  -1.13901  -1.13824  -1.13769  -1.13648
  Beta  occ. eigenvalues --   -1.13580  -1.13545  -1.13460  -1.13416  -1.13258
  Beta  occ. eigenvalues --   -1.13171  -1.13166  -1.13139  -1.13045  -1.13025
  Beta  occ. eigenvalues --   -0.20979  -0.13830  -0.12497
  Beta virt. eigenvalues --   -0.07858  -0.05445  -0.04301  -0.03912  -0.02758
  Beta virt. eigenvalues --   -0.02096  -0.01497  -0.01217  -0.00436   0.00096
  Beta virt. eigenvalues --    0.00364   0.00696   0.00772   0.01055   0.01144

 Mulliken charges and spin densities:
               1          2
     1  Na  -0.635371   0.336318
     2  Na   0.425749   0.108555
     3  Na  -0.028730  -0.033749
     4  Na   0.339862   0.101541
     5  Na   0.197748   0.059538
     6  Na  -0.348587   0.480831
     7  Na   0.049329  -0.053034
 Sum of Mulliken charges =  -0.00000   1.00000

 Dipole moment (field-independent basis, Debye):
    X=             -0.1196    Y=             -0.0898    Z=              0.2189  Tot=              0.2651
 Quadrupole moment (field-independent basis, Debye-Ang):
   XX=            -56.9956   YY=            -69.9462   ZZ=            -69.9916
   XY=             -0.5154   XZ=             -0.8424   YZ=              0.0621

 Normal termination of Gaussian 16 at Mon Nov 13 19:49:18 2023.
