 Gaussian 16, Revision B.01,
 Gaussian 16:  ES64L-G16RevB.01 20-Dec-2017

 -------------------------
 #P B3LYP/6-311+g(d) force
 -------------------------

 ------------------------------
 Gaussian input prepared by ASE
 ------------------------------
 Symbolic Z-matrix:
 Charge =  0 Multiplicity = 2

                         Standard orientation:
 ---------------------------------------------------------------------
 Center     Atomic      Atomic             Coordinates (Angstroms)
 Number     Number       Type             X           Y           Z
 ---------------------------------------------------------------------
      1         11           0        3.034232    2.942759    1.022853
      2         11           0        0.595582    1.767719   -0.263267
      3         11           0        2.804256   -2.823492    0.004289
      4         11           0        1.187327   -0.859502   -1.582249
      5         11           0       -1.911550   -2.090926    1.742544
      6         11           0       -1.589142   -0.260038   -0.615204
      7         11           0       -4.120704    1.323481   -0.308966
 ---------------------------------------------------------------------

 SCF Done:  E(UB3LYP) =  -1136.09203574     A.U. after   26 cycles

 The electronic state is 2-A.
 Alpha  occ. eigenvalues --  -38.45851 -38.45211 -38.44598 -38.44025 -38.43876
 Alpha  occ. eigenvalues --  -38.43606 -38.43214  -2.21640  -2.20978  -2.20438
 Alpha  occ. eigenvalues --   -2.19995  -2.19939  -2.19433  -2.19170  -1.15330
 Alpha  occ. eigenvalues --   -1.15286  -1.15265  -1.14697  -1.14637  -1.14621
 Alpha  occ. eigenvalues --   -1.14152  -1.14060  -1.14017  -1.13822  -1.13651
 Alpha  occ. eigenvalues --   -1.13613  -1.13604  -1.13571  -1.13518  -1.13155
 Alpha  occ. eigenvalues --   -1.13065  -1.13061  -1.12852  -1.12807  -1.12769
 Alpha  occ. eigenvalues --   -0.17987  -0.13493  -0.12241  -0.10764
 Alpha virt. eigenvalues --   -0.07762  -0.04955  -0.04024  -0.03477  -0.03057
 Alpha virt. eigenvalues --   -0.02588  -0.01915  -0.01263  -0.00836  -0.00323
 Alpha virt. eigenvalues --   -0.00199  -0.00096   0.00243   0.00520   0.00536

  Beta  occ. eigenvalues --  -38.45833 -38.45246 -38.44481 -38.43992 -38.43848
  Beta  occ. eigenvalues --  -38.43552 -38.43215  -2.21607  -2.21045  -2.20221
  Beta  occ. eigenvalues --   -2.19934  -2.19898  -2.19332  -2.19180  -1.15308
  Beta  occ. eigenvalues --   -1.15264  -1.15236  -1.14738  -1.14682  -1.14664
  Beta  occ. eigenvalues --   -1.14008  -1.13913  -1.13869  -1.13781  -1.13619
  Beta  occ. eigenvalues --   -1.13590  -1.13563  -1.13487  -1.13471  -1.13095
  Beta  occ. eigenvalues --   -1.12995  -1.12992  -1.12840  -1.12818  -1.12743
  Beta  occ. eigenvalues --   -0.17374  -0.13255  -0.11775
  Beta virt. eigenvalues --   -0.07511  -0.07143  -0.04678  -0.03674  -0.03045
  Beta virt. eigenvalues --   -0.02808  -0.02448  -0.01455  -0.00960  -0.00650
  Beta virt. eigenvalues --   -0.00146  -0.00091   0.00169   0.00337   0.00605

 Mulliken charges and spin densities:
               1          2
     1  Na   0.426933   0.165311
     2  Na  -0.974263   0.333327
     3  Na  -0.848347  -0.044319
     4  Na   3.136976  -0.380395
     5  Na   0.489527   0.488656
     6  Na  -2.224959   0.273599
     7  Na  -0.005867   0.163820
 Sum of Mulliken charges =  -0.00000   1.00000

 Dipole moment (field-independent basis, Debye):
    X=             -0.6527    Y=             -0.4929    Z=              0.4983  Tot=              0.9577
 Quadrupole moment (field-independent basis, Debye-Ang):
   XX=            -50.3977   YY=            -70.6814   ZZ=            -71.4493
   XY=            -10.0500   XZ=              3.1900   YZ=             -1.2189

 Normal termination of Gaussian 16 at Mon Nov 13 18:48:09 2023.
