 Gaussian 16, Revision B.01,
 Gaussian 16:  ES64L-G16RevB.01 20-Dec-2017

 -------------------------
 #P B3LYP/6-311+g(d) force
 -------------------------

 ------------------------------
 Gaussian input prepared by ASE
 ------------------------------
 Symbolic Z-matrix:
 Charge =  0 Multiplicity = 2

                         Standard orientation:
 ---------------------------------------------------------------------
 Center     Atomic      Atomic             Coordinates (Angstroms)
 Number     Number       Type             X           Y           Z
 ---------------------------------------------------------------------
      1         11           0        1.401496   -2.340200   -1.537629
      2         11           0        2.418600    1.704995   -1.209516
      3         11           0        1.729730   -0.241705    2.613335
      4         11           0        0.269684   -0.018708    0.000211
      5         11           0       -1.983754   -1.761371    0.956424
      6         11           0       -2.444274    0.206841   -1.246455
      7         11           0       -1.391483    2.450148    0.423630
 ---------------------------------------------------------------------

 SCF Done:  E(UB3LYP) =  -1136.10738369     A.U. after   21 cycles

 The electronic state is 2-A.
 Alpha  occ. eigenvalues --  -38.45042 -38.44203 -38.44193 -38.43795 -38.43698
 Alpha  occ. eigenvalues --  -38.43315 -38.41935  -2.20869  -2.20010  -2.20008
 Alpha  occ. eigenvalues --   -2.19696  -2.19675  -2.19210  -2.18255  -1.14564
 Alpha  occ. eigenvalues --   -1.14475  -1.14460  -1.13728  -1.13718  -1.13650
 Alpha  occ. eigenvalues --   -1.13643  -1.13618  -1.13605  -1.13525  -1.13406
 Alpha  occ. eigenvalues --   -1.13377  -1.13323  -1.13280  -1.13217  -1.12931
 Alpha  occ. eigenvalues --   -1.12855  -1.12799  -1.12004  -1.11919  -1.11864
 Alpha  occ. eigenvalues --   -0.18606  -0.12849  -0.11704  -0.11538
 Alpha virt. eigenvalues --   -0.05446  -0.04851  -0.04401  -0.03164  -0.02809
 Alpha virt. eigenvalues --   -0.02644  -0.01274  -0.00934  -0.00918   0.00298
 Alpha virt. eigenvalues --    0.00346   0.00495   0.00648   0.00747   0.00910

  Beta  occ. eigenvalues --  -38.44941 -38.44185 -38.44150 -38.43789 -38.43689
  Beta  occ. eigenvalues --  -38.43317 -38.41907  -2.20685  -2.19977  -2.19930
  Beta  occ. eigenvalues --   -2.19684  -2.19661  -2.19214  -2.18216  -1.14437
  Beta  occ. eigenvalues --   -1.14348  -1.14331  -1.13703  -1.13666  -1.13622
  Beta  occ. eigenvalues --   -1.13593  -1.13586  -1.13550  -1.13519  -1.13395
  Beta  occ. eigenvalues --   -1.13363  -1.13308  -1.13269  -1.13208  -1.12933
  Beta  occ. eigenvalues --   -1.12847  -1.12803  -1.11909  -1.11871  -1.11851
  Beta  occ. eigenvalues --   -0.17897  -0.12531  -0.11380
  Beta virt. eigenvalues --   -0.07721  -0.05284  -0.04381  -0.04115  -0.02929
  Beta virt. eigenvalues --   -0.02260  -0.01964  -0.01167  -0.00844  -0.00432
  Beta virt. eigenvalues --    0.00391   0.00407   0.00527   0.00717   0.00821

 Mulliken charges and spin densities:
               1          2
     1  Na   0.245674   0.416267
     2  Na   0.117261   0.064763
     3  Na  -0.077315   0.578152
     4  Na  -0.758564   0.505992
     5  Na   0.195140  -0.026954
     6  Na   0.199024  -0.358095
     7  Na   0.078780  -0.180125
 Sum of Mulliken charges =  -0.00000   1.00000

 Dipole moment (field-independent basis, Debye):
    X=              0.3953    Y=             -0.1513    Z=              0.1376  Tot=              0.4451
 Quadrupole moment (field-independent basis, Debye-Ang):
   XX=            -61.5379   YY=            -67.7157   ZZ=            -61.4044
   XY=              0.9150   XZ=             -0.4025   YZ=              0.4494

 Normal termination of Gaussian 16 at Mon Nov 13 20:08:41 2023.
