 Gaussian 16, Revision B.01,
 Gaussian 16:  ES64L-G16RevB.01 20-Dec-2017

 -------------------------
 #P B3LYP/6-311+g(d) force
 -------------------------

 ------------------------------
 Gaussian input prepared by ASE
 ------------------------------
 Symbolic Z-matrix:
 Charge =  0 Multiplicity = 2

                         Standard orientation:
 ---------------------------------------------------------------------
 Center     Atomic      Atomic             Coordinates (Angstroms)
 Number     Number       Type             X           Y           Z
 ---------------------------------------------------------------------
      1         11           0        0.829261   -1.570090   -1.038647
      2         11           0       -0.612676   -1.523217    1.590558
      3         11           0       -2.144718   -1.162882   -0.952365
      4         11           0       -2.501866    1.636403    0.074108
      5         11           0        0.247654    1.342533    1.248092
      6         11           0        2.827543   -0.063910    0.623565
      7         11           0        1.354801    1.341163   -1.545311
 ---------------------------------------------------------------------

 SCF Done:  E(UB3LYP) =  -1136.11019055     A.U. after   21 cycles

 The electronic state is 2-A.
 Alpha  occ. eigenvalues --  -38.44346 -38.44134 -38.43795 -38.43790 -38.43545
 Alpha  occ. eigenvalues --  -38.43159 -38.42979  -2.20346  -2.20136  -2.19814
 Alpha  occ. eigenvalues --   -2.19784  -2.19446  -2.19263  -2.19077  -1.14132
 Alpha  occ. eigenvalues --   -1.14025  -1.13976  -1.13835  -1.13781  -1.13699
 Alpha  occ. eigenvalues --   -1.13628  -1.13530  -1.13495  -1.13454  -1.13426
 Alpha  occ. eigenvalues --   -1.13321  -1.13190  -1.13090  -1.13054  -1.12913
 Alpha  occ. eigenvalues --   -1.12901  -1.12844  -1.12744  -1.12723  -1.12689
 Alpha  occ. eigenvalues --   -0.20289  -0.13930  -0.12187  -0.11878
 Alpha virt. eigenvalues --   -0.05637  -0.04541  -0.04305  -0.03516  -0.03018
 Alpha virt. eigenvalues --   -0.02911  -0.01400  -0.00410  -0.00329   0.00344
 Alpha virt. eigenvalues --    0.00544   0.00590   0.00830   0.00957   0.01000

  Beta  occ. eigenvalues --  -38.44333 -38.44083 -38.43775 -38.43734 -38.43544
  Beta  occ. eigenvalues --  -38.43110 -38.42945  -2.20327  -2.20045  -2.19755
  Beta  occ. eigenvalues --   -2.19708  -2.19446  -2.19180  -2.19020  -1.14118
  Beta  occ. eigenvalues --   -1.13992  -1.13947  -1.13777  -1.13703  -1.13641
  Beta  occ. eigenvalues --   -1.13589  -1.13469  -1.13446  -1.13417  -1.13359
  Beta  occ. eigenvalues --   -1.13263  -1.13178  -1.13082  -1.13049  -1.12866
  Beta  occ. eigenvalues --   -1.12817  -1.12782  -1.12709  -1.12667  -1.12628
  Beta  occ. eigenvalues --   -0.19437  -0.13708  -0.11734
  Beta virt. eigenvalues --   -0.07919  -0.05485  -0.04508  -0.03613  -0.03311
  Beta virt. eigenvalues --   -0.02379  -0.01829  -0.01329  -0.00371  -0.00082
  Beta virt. eigenvalues --    0.00388   0.00586   0.00602   0.00978   0.00996

 Mulliken charges and spin densities:
               1          2
     1  Na   0.284157   0.216605
     2  Na  -0.716623   0.193777
     3  Na   0.221789   0.129256
     4  Na  -0.224998  -0.024371
     5  Na   0.388001   0.196743
     6  Na   0.782856  -0.023675
     7  Na  -0.735182   0.311664
 Sum of Mulliken charges =  -0.00000   1.00000

 Dipole moment (field-independent basis, Debye):
    X=              0.2351    Y=              0.0316    Z=             -0.0963  Tot=              0.2560
 Quadrupole moment (field-independent basis, Debye-Ang):
   XX=            -57.1185   YY=            -74.2365   ZZ=            -65.2685
   XY=             -0.1361   XZ=              1.8973   YZ=             -2.2636

 Normal termination of Gaussian 16 at Mon Nov 13 17:44:54 2023.
