 Gaussian 16, Revision B.01,
 Gaussian 16:  ES64L-G16RevB.01 20-Dec-2017

 -------------------------
 #P B3LYP/6-311+g(d) force
 -------------------------

 ------------------------------
 Gaussian input prepared by ASE
 ------------------------------
 Symbolic Z-matrix:
 Charge =  0 Multiplicity = 2

                         Standard orientation:
 ---------------------------------------------------------------------
 Center     Atomic      Atomic             Coordinates (Angstroms)
 Number     Number       Type             X           Y           Z
 ---------------------------------------------------------------------
      1         11           0       -1.862178    1.317649   -0.735175
      2         11           0        0.320196   -0.558905    1.632200
      3         11           0       -2.187377   -0.905427    0.636031
      4         11           0        0.347281    0.313967   -1.554121
      5         11           0        0.177209   -2.063469   -0.637463
      6         11           0        2.580560   -0.140589   -0.132321
      7         11           0        0.624308    2.036774    0.790850
 ---------------------------------------------------------------------

 SCF Done:  E(UB3LYP) =  -1136.05736089     A.U. after   20 cycles

 The electronic state is 2-A.
 Alpha  occ. eigenvalues --  -38.45043 -38.44530 -38.44352 -38.44254 -38.43917
 Alpha  occ. eigenvalues --  -38.43749 -38.43418  -2.21476  -2.20863  -2.20510
 Alpha  occ. eigenvalues --   -2.20374  -2.20032  -2.19951  -2.19545  -1.15479
 Alpha  occ. eigenvalues --   -1.15276  -1.15122  -1.14748  -1.14593  -1.14571
 Alpha  occ. eigenvalues --   -1.14500  -1.14115  -1.14065  -1.13998  -1.13940
 Alpha  occ. eigenvalues --   -1.13749  -1.13729  -1.13669  -1.13624  -1.13582
 Alpha  occ. eigenvalues --   -1.13545  -1.13418  -1.13245  -1.13178  -1.13095
 Alpha  occ. eigenvalues --   -0.21935  -0.13913  -0.12889  -0.12684
 Alpha virt. eigenvalues --   -0.05146  -0.03998  -0.03993  -0.03890  -0.03340
 Alpha virt. eigenvalues --   -0.03134  -0.01002  -0.00392  -0.00135   0.00338
 Alpha virt. eigenvalues --    0.00860   0.01030   0.01096   0.01261   0.01292

  Beta  occ. eigenvalues --  -38.44953 -38.44444 -38.44330 -38.44235 -38.43905
  Beta  occ. eigenvalues --  -38.43723 -38.43391  -2.21317  -2.20710  -2.20476
  Beta  occ. eigenvalues --   -2.20344  -2.20017  -2.19911  -2.19501  -1.15359
  Beta  occ. eigenvalues --   -1.15180  -1.15005  -1.14650  -1.14515  -1.14487
  Beta  occ. eigenvalues --   -1.14429  -1.14074  -1.14022  -1.13966  -1.13881
  Beta  occ. eigenvalues --   -1.13728  -1.13711  -1.13618  -1.13607  -1.13555
  Beta  occ. eigenvalues --   -1.13467  -1.13399  -1.13217  -1.13106  -1.13072
  Beta  occ. eigenvalues --   -0.21157  -0.13566  -0.12542
  Beta virt. eigenvalues --   -0.08391  -0.05156  -0.03950  -0.03863  -0.02977
  Beta virt. eigenvalues --   -0.02504  -0.01936  -0.00953  -0.00362   0.00030
  Beta virt. eigenvalues --    0.00369   0.00868   0.01047   0.01119   0.01308

 Mulliken charges and spin densities:
               1          2
     1  Na   0.163520   0.050894
     2  Na  -0.627521   0.342512
     3  Na   0.201273   0.054016
     4  Na  -0.472979   0.325138
     5  Na   0.359800   0.152825
     6  Na   0.023941  -0.105611
     7  Na   0.351967   0.180226
 Sum of Mulliken charges =  -0.00000   1.00000

 Dipole moment (field-independent basis, Debye):
    X=              0.0798    Y=              0.1096    Z=              0.2564  Tot=              0.2901
 Quadrupole moment (field-independent basis, Debye-Ang):
   XX=            -61.0192   YY=            -70.3264   ZZ=            -67.1703
   XY=              0.0671   XZ=             -0.1456   YZ=              1.0049

 Normal termination of Gaussian 16 at Mon Nov 13 19:41:30 2023.
