 Gaussian 16, Revision B.01,
 Gaussian 16:  ES64L-G16RevB.01 20-Dec-2017

 -------------------------
 #P B3LYP/6-311+g(d) force
 -------------------------

 ------------------------------
 Gaussian input prepared by ASE
 ------------------------------
 Symbolic Z-matrix:
 Charge =  0 Multiplicity = 2

                         Standard orientation:
 ---------------------------------------------------------------------
 Center     Atomic      Atomic             Coordinates (Angstroms)
 Number     Number       Type             X           Y           Z
 ---------------------------------------------------------------------
      1         11           0       -0.286247   -0.989942   -1.217896
      2         11           0       -0.801237   -1.113344    1.735859
      3         11           0       -3.085673   -1.238249   -0.197516
      4         11           0       -2.037740    1.443413   -1.020885
      5         11           0       -0.188684    1.801892    1.319852
      6         11           0        1.973563    0.872952   -0.547622
      7         11           0        4.426018   -0.776722   -0.071792
 ---------------------------------------------------------------------

 SCF Done:  E(UB3LYP) =  -1136.09630089     A.U. after   27 cycles

 The electronic state is 2-A.
 Alpha  occ. eigenvalues --  -38.45013 -38.44847 -38.44469 -38.44314 -38.43853
 Alpha  occ. eigenvalues --  -38.43453 -38.42619  -2.20917  -2.20790  -2.20496
 Alpha  occ. eigenvalues --   -2.20338  -2.19842  -2.19446  -2.18641  -1.14662
 Alpha  occ. eigenvalues --   -1.14608  -1.14583  -1.14505  -1.14444  -1.14429
 Alpha  occ. eigenvalues --   -1.14154  -1.14132  -1.14117  -1.14020  -1.13991
 Alpha  occ. eigenvalues --   -1.13961  -1.13500  -1.13481  -1.13464  -1.13174
 Alpha  occ. eigenvalues --   -1.13120  -1.13043  -1.12313  -1.12295  -1.12258
 Alpha  occ. eigenvalues --   -0.20061  -0.13984  -0.11963  -0.11507
 Alpha virt. eigenvalues --   -0.07472  -0.04378  -0.03723  -0.03398  -0.02896
 Alpha virt. eigenvalues --   -0.02661  -0.02582  -0.01210  -0.00492  -0.00047
 Alpha virt. eigenvalues --    0.00154   0.00315   0.00446   0.00765   0.00907

  Beta  occ. eigenvalues --  -38.45040 -38.44804 -38.44365 -38.44248 -38.43845
  Beta  occ. eigenvalues --  -38.43446 -38.42590  -2.20846  -2.20842  -2.20306
  Beta  occ. eigenvalues --   -2.20219  -2.19836  -2.19433  -2.18591  -1.14604
  Beta  occ. eigenvalues --   -1.14545  -1.14538  -1.14509  -1.14478  -1.14463
  Beta  occ. eigenvalues --   -1.14041  -1.14003  -1.13965  -1.13948  -1.13901
  Beta  occ. eigenvalues --   -1.13868  -1.13496  -1.13460  -1.13424  -1.13167
  Beta  occ. eigenvalues --   -1.13102  -1.13040  -1.12275  -1.12259  -1.12199
  Beta  occ. eigenvalues --   -0.19166  -0.13925  -0.11268
  Beta virt. eigenvalues --   -0.07707  -0.07226  -0.04407  -0.03148  -0.02985
  Beta virt. eigenvalues --   -0.02691  -0.02036  -0.01653  -0.01126  -0.00276
  Beta virt. eigenvalues --    0.00011   0.00175   0.00376   0.00549   0.00835

 Mulliken charges and spin densities:
               1          2
     1  Na  -0.578918   0.332454
     2  Na  -0.098111   0.498645
     3  Na   0.776127  -0.101612
     4  Na   0.250218   0.378935
     5  Na  -0.296174  -0.016666
     6  Na  -0.084913   0.049358
     7  Na   0.031772  -0.141114
 Sum of Mulliken charges =  -0.00000   1.00000

 Dipole moment (field-independent basis, Debye):
    X=              0.0924    Y=             -0.0136    Z=              0.4097  Tot=              0.4202
 Quadrupole moment (field-independent basis, Debye-Ang):
   XX=            -52.5065   YY=            -74.1095   ZZ=            -69.6019
   XY=             -3.5959   XZ=              2.1062   YZ=             -1.9924

 Normal termination of Gaussian 16 at Mon Nov 13 15:51:46 2023.
