 Gaussian 16, Revision B.01,
 Gaussian 16:  ES64L-G16RevB.01 20-Dec-2017

 -------------------------
 #P B3LYP/6-311+g(d) force
 -------------------------

 ------------------------------
 Gaussian input prepared by ASE
 ------------------------------
 Symbolic Z-matrix:
 Charge =  0 Multiplicity = 2

                         Standard orientation:
 ---------------------------------------------------------------------
 Center     Atomic      Atomic             Coordinates (Angstroms)
 Number     Number       Type             X           Y           Z
 ---------------------------------------------------------------------
      1         11           0        0.638393    0.134298   -1.487885
      2         11           0        0.657113    2.755166   -0.024497
      3         11           0       -4.054002   -0.929310   -0.023999
      4         11           0       -1.785396    1.030579    0.046226
      5         11           0        0.702064    0.167162    1.496570
      6         11           0        0.707700   -2.454746    0.032719
      7         11           0        3.134127   -0.703148   -0.039135
 ---------------------------------------------------------------------

 SCF Done:  E(UB3LYP) =  -1136.09753901     A.U. after   24 cycles

 The electronic state is 2-A.
 Alpha  occ. eigenvalues --  -38.44987 -38.44753 -38.44084 -38.43384 -38.43320
 Alpha  occ. eigenvalues --  -38.43065 -38.43035  -2.20968  -2.20534  -2.20061
 Alpha  occ. eigenvalues --   -2.19582  -2.19514  -2.19109  -2.19066  -1.14709
 Alpha  occ. eigenvalues --   -1.14626  -1.14596  -1.14250  -1.14184  -1.14164
 Alpha  occ. eigenvalues --   -1.13839  -1.13728  -1.13651  -1.13422  -1.13246
 Alpha  occ. eigenvalues --   -1.13207  -1.13190  -1.13133  -1.13095  -1.12849
 Alpha  occ. eigenvalues --   -1.12776  -1.12747  -1.12697  -1.12686  -1.12602
 Alpha  occ. eigenvalues --   -0.20115  -0.13835  -0.12370  -0.10670
 Alpha virt. eigenvalues --   -0.06992  -0.04671  -0.04090  -0.03247  -0.02325
 Alpha virt. eigenvalues --   -0.02298  -0.01815  -0.01160  -0.00353  -0.00103
 Alpha virt. eigenvalues --    0.00131   0.00251   0.00690   0.00783   0.00981

  Beta  occ. eigenvalues --  -38.44970 -38.44772 -38.44067 -38.43304 -38.43239
  Beta  occ. eigenvalues --  -38.43055 -38.43022  -2.20943  -2.20570  -2.20038
  Beta  occ. eigenvalues --   -2.19439  -2.19368  -2.19091  -2.19052  -1.14698
  Beta  occ. eigenvalues --   -1.14585  -1.14553  -1.14276  -1.14205  -1.14188
  Beta  occ. eigenvalues --   -1.13822  -1.13661  -1.13640  -1.13335  -1.13147
  Beta  occ. eigenvalues --   -1.13110  -1.13082  -1.13028  -1.12994  -1.12836
  Beta  occ. eigenvalues --   -1.12759  -1.12687  -1.12683  -1.12632  -1.12599
  Beta  occ. eigenvalues --   -0.19308  -0.13605  -0.12170
  Beta virt. eigenvalues --   -0.06842  -0.06527  -0.04684  -0.04066  -0.02412
  Beta virt. eigenvalues --   -0.02244  -0.01660  -0.01165  -0.00807  -0.00346
  Beta virt. eigenvalues --    0.00137   0.00177   0.00256   0.00814   0.00904

 Mulliken charges and spin densities:
               1          2
     1  Na  -0.613282   0.369832
     2  Na   0.523567   0.069579
     3  Na   0.186813  -0.109939
     4  Na  -0.219241   0.184088
     5  Na  -0.686949   0.287015
     6  Na   0.212506   0.125382
     7  Na   0.596586   0.074043
 Sum of Mulliken charges =  -0.00000   1.00000

 Dipole moment (field-independent basis, Debye):
    X=              0.5390    Y=             -0.4603    Z=             -0.0044  Tot=              0.7088
 Quadrupole moment (field-independent basis, Debye-Ang):
   XX=            -51.4363   YY=            -63.4234   ZZ=            -76.6468
   XY=              2.6986   XZ=              0.0669   YZ=             -0.0028

 Normal termination of Gaussian 16 at Mon Nov 13 17:51:49 2023.
