 Gaussian 16, Revision B.01,
 Gaussian 16:  ES64L-G16RevB.01 20-Dec-2017

 -------------------------
 #P B3LYP/6-311+g(d) force
 -------------------------

 ------------------------------
 Gaussian input prepared by ASE
 ------------------------------
 Symbolic Z-matrix:
 Charge =  0 Multiplicity = 2

                         Standard orientation:
 ---------------------------------------------------------------------
 Center     Atomic      Atomic             Coordinates (Angstroms)
 Number     Number       Type             X           Y           Z
 ---------------------------------------------------------------------
      1         11           0        0.812168   -2.222155    0.909681
      2         11           0        1.237782    0.649417    1.635955
      3         11           0        1.866418    2.606477   -0.547698
      4         11           0        2.029723   -0.339401   -1.085529
      5         11           0       -0.639470   -1.602361   -1.631911
      6         11           0       -1.518979   -0.335153    0.944804
      7         11           0       -3.787643    1.243177   -0.225302
 ---------------------------------------------------------------------

 SCF Done:  E(UB3LYP) =  -1136.10211510     A.U. after   25 cycles

 The electronic state is 2-A.
 Alpha  occ. eigenvalues --  -38.44333 -38.44044 -38.44032 -38.43899 -38.43727
 Alpha  occ. eigenvalues --  -38.43601 -38.43166  -2.20329  -2.20122  -2.19997
 Alpha  occ. eigenvalues --   -2.19842  -2.19697  -2.19625  -2.19243  -1.14088
 Alpha  occ. eigenvalues --   -1.14017  -1.13929  -1.13924  -1.13837  -1.13784
 Alpha  occ. eigenvalues --   -1.13689  -1.13629  -1.13585  -1.13558  -1.13485
 Alpha  occ. eigenvalues --   -1.13481  -1.13391  -1.13330  -1.13293  -1.13259
 Alpha  occ. eigenvalues --   -1.13256  -1.13230  -1.12909  -1.12897  -1.12838
 Alpha  occ. eigenvalues --   -0.19996  -0.13369  -0.12299  -0.12104
 Alpha virt. eigenvalues --   -0.05963  -0.04875  -0.03922  -0.03399  -0.03201
 Alpha virt. eigenvalues --   -0.02818  -0.01348  -0.00815  -0.00316   0.00034
 Alpha virt. eigenvalues --    0.00271   0.00451   0.00576   0.00846   0.00982

  Beta  occ. eigenvalues --  -38.44277 -38.44048 -38.43966 -38.43855 -38.43717
  Beta  occ. eigenvalues --  -38.43565 -38.43135  -2.20227  -2.20008  -2.19919
  Beta  occ. eigenvalues --   -2.19850  -2.19640  -2.19606  -2.19193  -1.14029
  Beta  occ. eigenvalues --   -1.13930  -1.13860  -1.13856  -1.13734  -1.13709
  Beta  occ. eigenvalues --   -1.13623  -1.13574  -1.13562  -1.13508  -1.13490
  Beta  occ. eigenvalues --   -1.13484  -1.13351  -1.13299  -1.13244  -1.13234
  Beta  occ. eigenvalues --   -1.13218  -1.13187  -1.12875  -1.12848  -1.12783
  Beta  occ. eigenvalues --   -0.19114  -0.13207  -0.12065
  Beta virt. eigenvalues --   -0.07831  -0.05825  -0.04716  -0.03324  -0.03194
  Beta virt. eigenvalues --   -0.02593  -0.01941  -0.01213  -0.00758  -0.00030
  Beta virt. eigenvalues --    0.00061   0.00325   0.00553   0.00669   0.00864

 Mulliken charges and spin densities:
               1          2
     1  Na   1.499691  -0.135263
     2  Na  -0.843331   0.309423
     3  Na   0.316499  -0.031053
     4  Na  -0.330944   0.436979
     5  Na  -0.671634   0.317907
     6  Na  -0.091701   0.070803
     7  Na   0.121420   0.031204
 Sum of Mulliken charges =  -0.00000   1.00000

 Dipole moment (field-independent basis, Debye):
    X=              0.1439    Y=              0.1553    Z=             -0.6022  Tot=              0.6383
 Quadrupole moment (field-independent basis, Debye-Ang):
   XX=            -64.7185   YY=            -64.7189   ZZ=            -66.8544
   XY=             -1.9017   XZ=              2.4815   YZ=             -2.1960

 Normal termination of Gaussian 16 at Mon Nov 13 16:40:30 2023.
