 Gaussian 16, Revision B.01,
 Gaussian 16:  ES64L-G16RevB.01 20-Dec-2017

 -------------------------
 #P B3LYP/6-311+g(d) force
 -------------------------

 ------------------------------
 Gaussian input prepared by ASE
 ------------------------------
 Symbolic Z-matrix:
 Charge =  0 Multiplicity = 2

                         Standard orientation:
 ---------------------------------------------------------------------
 Center     Atomic      Atomic             Coordinates (Angstroms)
 Number     Number       Type             X           Y           Z
 ---------------------------------------------------------------------
      1         11           0       -0.974106   -2.457421   -1.269872
      2         11           0       -0.837821    2.963826   -0.528016
      3         11           0       -2.897915    0.936571    0.208661
      4         11           0       -0.438550   -2.320293    1.668912
      5         11           0       -0.015479    0.114418   -0.038887
      6         11           0        2.682540   -0.523490   -1.203511
      7         11           0        2.481332    1.286390    1.162713
 ---------------------------------------------------------------------

 SCF Done:  E(UB3LYP) =  -1136.11215374     A.U. after   22 cycles

 The electronic state is 2-A.
 Alpha  occ. eigenvalues --  -38.44111 -38.43910 -38.43895 -38.43705 -38.43688
 Alpha  occ. eigenvalues --  -38.43670 -38.42356  -2.20002  -2.19802  -2.19799
 Alpha  occ. eigenvalues --   -2.19610  -2.19604  -2.19579  -2.18667  -1.13781
 Alpha  occ. eigenvalues --   -1.13659  -1.13636  -1.13569  -1.13503  -1.13470
 Alpha  occ. eigenvalues --   -1.13428  -1.13421  -1.13411  -1.13387  -1.13312
 Alpha  occ. eigenvalues --   -1.13295  -1.13267  -1.13214  -1.13209  -1.13206
 Alpha  occ. eigenvalues --   -1.13174  -1.13120  -1.12351  -1.12323  -1.12319
 Alpha  occ. eigenvalues --   -0.18717  -0.13073  -0.13014  -0.10310
 Alpha virt. eigenvalues --   -0.05374  -0.04915  -0.04808  -0.03508  -0.02740
 Alpha virt. eigenvalues --   -0.01890  -0.01345  -0.01163  -0.00573   0.00109
 Alpha virt. eigenvalues --    0.00278   0.00517   0.00776   0.00813   0.00856

  Beta  occ. eigenvalues --  -38.44108 -38.43907 -38.43865 -38.43684 -38.43662
  Beta  occ. eigenvalues --  -38.43618 -38.42322  -2.19999  -2.19798  -2.19743
  Beta  occ. eigenvalues --   -2.19571  -2.19554  -2.19486  -2.18618  -1.13780
  Beta  occ. eigenvalues --   -1.13657  -1.13622  -1.13539  -1.13500  -1.13417
  Beta  occ. eigenvalues --   -1.13415  -1.13387  -1.13382  -1.13374  -1.13278
  Beta  occ. eigenvalues --   -1.13248  -1.13201  -1.13186  -1.13169  -1.13167
  Beta  occ. eigenvalues --   -1.13111  -1.13060  -1.12300  -1.12298  -1.12215
  Beta  occ. eigenvalues --   -0.18014  -0.12921  -0.12802
  Beta virt. eigenvalues --   -0.06481  -0.05349  -0.04721  -0.04455  -0.02947
  Beta virt. eigenvalues --   -0.02256  -0.01309  -0.01264  -0.00965  -0.00242
  Beta virt. eigenvalues --    0.00206   0.00342   0.00581   0.00797   0.00899

 Mulliken charges and spin densities:
               1          2
     1  Na   0.186311   0.137660
     2  Na   0.555397  -0.297393
     3  Na   0.722257   0.109619
     4  Na   0.337683   0.156332
     5  Na  -3.360599   1.160326
     6  Na   0.936902  -0.220426
     7  Na   0.622048  -0.046117
 Sum of Mulliken charges =  -0.00000   1.00000

 Dipole moment (field-independent basis, Debye):
    X=             -0.1590    Y=              0.2083    Z=             -0.0116  Tot=              0.2624
 Quadrupole moment (field-independent basis, Debye-Ang):
   XX=            -59.9644   YY=            -61.0507   ZZ=            -70.2084
   XY=              1.6343   XZ=              0.1404   YZ=              0.8598

 Normal termination of Gaussian 16 at Mon Nov 13 20:35:36 2023.
