 Gaussian 16, Revision B.01,
 Gaussian 16:  ES64L-G16RevB.01 20-Dec-2017

 -------------------------
 #P B3LYP/6-311+g(d) force
 -------------------------

 ------------------------------
 Gaussian input prepared by ASE
 ------------------------------
 Symbolic Z-matrix:
 Charge =  0 Multiplicity = 2

                         Standard orientation:
 ---------------------------------------------------------------------
 Center     Atomic      Atomic             Coordinates (Angstroms)
 Number     Number       Type             X           Y           Z
 ---------------------------------------------------------------------
      1         11           0        0.316564    0.000244   -1.806740
      2         11           0        1.443933   -2.027603    0.028482
      3         11           0       -4.077344    0.002322   -0.093120
      4         11           0       -1.342098   -0.750441    0.250874
      5         11           0        1.040782    0.000402    1.839121
      6         11           0       -0.020466    2.028083    0.319446
      7         11           0        2.638628    0.746993   -0.538063
 ---------------------------------------------------------------------

 SCF Done:  E(UB3LYP) =  -1136.07269980     A.U. after   28 cycles

 The electronic state is 2-A.
 Alpha  occ. eigenvalues --  -38.45922 -38.44892 -38.44692 -38.44572 -38.43326
 Alpha  occ. eigenvalues --  -38.42713 -38.42558  -2.21716  -2.21095  -2.20808
 Alpha  occ. eigenvalues --   -2.20784  -2.19520  -2.18815  -2.18671  -1.15452
 Alpha  occ. eigenvalues --   -1.15353  -1.15336  -1.14971  -1.14881  -1.14656
 Alpha  occ. eigenvalues --   -1.14613  -1.14526  -1.14465  -1.14369  -1.14353
 Alpha  occ. eigenvalues --   -1.14291  -1.13264  -1.13184  -1.13080  -1.12551
 Alpha  occ. eigenvalues --   -1.12479  -1.12379  -1.12358  -1.12318  -1.12267
 Alpha  occ. eigenvalues --   -0.21143  -0.13874  -0.12256  -0.11764
 Alpha virt. eigenvalues --   -0.07334  -0.03679  -0.03594  -0.03460  -0.02636
 Alpha virt. eigenvalues --   -0.02583  -0.02450  -0.00596  -0.00398   0.00041
 Alpha virt. eigenvalues --    0.00344   0.00389   0.00488   0.00862   0.01106

  Beta  occ. eigenvalues --  -38.45938 -38.44797 -38.44659 -38.44471 -38.43302
  Beta  occ. eigenvalues --  -38.42695 -38.42543  -2.21745  -2.20928  -2.20745
  Beta  occ. eigenvalues --   -2.20610  -2.19484  -2.18789  -2.18652  -1.15472
  Beta  occ. eigenvalues --   -1.15370  -1.15357  -1.14868  -1.14766  -1.14538
  Beta  occ. eigenvalues --   -1.14529  -1.14398  -1.14346  -1.14308  -1.14284
  Beta  occ. eigenvalues --   -1.14187  -1.13254  -1.13094  -1.13063  -1.12538
  Beta  occ. eigenvalues --   -1.12409  -1.12372  -1.12344  -1.12268  -1.12235
  Beta  occ. eigenvalues --   -0.20270  -0.13728  -0.11384
  Beta virt. eigenvalues --   -0.07923  -0.07184  -0.03498  -0.03296  -0.02943
  Beta virt. eigenvalues --   -0.02404  -0.01745  -0.01696  -0.00524  -0.00175
  Beta virt. eigenvalues --    0.00089   0.00351   0.00478   0.00620   0.00910

 Mulliken charges and spin densities:
               1          2
     1  Na  -0.347415   0.509564
     2  Na  -0.305925  -0.093872
     3  Na   0.737186  -0.022264
     4  Na   0.091499   0.294111
     5  Na  -0.355249   0.254286
     6  Na  -0.095155  -0.040778
     7  Na   0.275059   0.098953
 Sum of Mulliken charges =  -0.00000   1.00000

 Dipole moment (field-independent basis, Debye):
    X=             -0.9691    Y=              0.3530    Z=             -0.1220  Tot=              1.0386
 Quadrupole moment (field-independent basis, Debye-Ang):
   XX=            -46.5887   YY=            -77.0646   ZZ=            -68.2220
   XY=             -1.3055   XZ=              0.2553   YZ=             -0.1566

 Normal termination of Gaussian 16 at Mon Nov 13 19:11:48 2023.
