 Gaussian 16, Revision B.01,
 Gaussian 16:  ES64L-G16RevB.01 20-Dec-2017

 -------------------------
 #P B3LYP/6-311+g(d) force
 -------------------------

 ------------------------------
 Gaussian input prepared by ASE
 ------------------------------
 Symbolic Z-matrix:
 Charge =  0 Multiplicity = 2

                         Standard orientation:
 ---------------------------------------------------------------------
 Center     Atomic      Atomic             Coordinates (Angstroms)
 Number     Number       Type             X           Y           Z
 ---------------------------------------------------------------------
      1         11           0        0.807956   -1.376519    1.018419
      2         11           0        0.427081   -0.313818   -1.501467
      3         11           0        3.057446   -0.062711   -0.240357
      4         11           0        0.875356    1.747145    0.317352
      5         11           0       -1.844859   -1.667213   -0.573548
      6         11           0       -2.001622    1.405972   -0.752326
      7         11           0       -1.321358    0.267144    1.731927
 ---------------------------------------------------------------------

 SCF Done:  E(UB3LYP) =  -1136.08306130     A.U. after   22 cycles

 The electronic state is 2-A.
 Alpha  occ. eigenvalues --  -38.44532 -38.44363 -38.44151 -38.43557 -38.43442
 Alpha  occ. eigenvalues --  -38.43275 -38.42821  -2.20555  -2.20535  -2.20470
 Alpha  occ. eigenvalues --   -2.19658  -2.19634  -2.19352  -2.18992  -1.14457
 Alpha  occ. eigenvalues --   -1.14355  -1.14290  -1.14238  -1.14207  -1.14195
 Alpha  occ. eigenvalues --   -1.14125  -1.14112  -1.14039  -1.13330  -1.13326
 Alpha  occ. eigenvalues --   -1.13297  -1.13264  -1.13253  -1.13220  -1.13036
 Alpha  occ. eigenvalues --   -1.12975  -1.12918  -1.12706  -1.12635  -1.12566
 Alpha  occ. eigenvalues --   -0.21455  -0.14392  -0.12518  -0.11957
 Alpha virt. eigenvalues --   -0.05802  -0.04125  -0.04065  -0.03544  -0.02808
 Alpha virt. eigenvalues --   -0.02709  -0.01495  -0.00372  -0.00297   0.00289
 Alpha virt. eigenvalues --    0.00665   0.00865   0.00938   0.01051   0.01070

  Beta  occ. eigenvalues --  -38.44529 -38.44283 -38.44079 -38.43534 -38.43398
  Beta  occ. eigenvalues --  -38.43255 -38.42801  -2.20549  -2.20393  -2.20344
  Beta  occ. eigenvalues --   -2.19598  -2.19583  -2.19321  -2.18964  -1.14418
  Beta  occ. eigenvalues --   -1.14263  -1.14214  -1.14190  -1.14170  -1.14140
  Beta  occ. eigenvalues --   -1.14045  -1.14013  -1.13959  -1.13302  -1.13283
  Beta  occ. eigenvalues --   -1.13245  -1.13215  -1.13190  -1.13152  -1.13005
  Beta  occ. eigenvalues --   -1.12939  -1.12883  -1.12693  -1.12573  -1.12538
  Beta  occ. eigenvalues --   -0.20610  -0.14134  -0.11693
  Beta virt. eigenvalues --   -0.08112  -0.05712  -0.04101  -0.03349  -0.03227
  Beta virt. eigenvalues --   -0.02008  -0.01754  -0.01411  -0.00353  -0.00041
  Beta virt. eigenvalues --    0.00327   0.00710   0.00850   0.01049   0.01083

 Mulliken charges and spin densities:
               1          2
     1  Na  -0.606649   0.281025
     2  Na  -0.111475   0.367964
     3  Na   1.085223  -0.030906
     4  Na  -0.823421   0.169623
     5  Na  -0.223561  -0.035204
     6  Na  -0.084443   0.031973
     7  Na   0.764326   0.215526
 Sum of Mulliken charges =  -0.00000   1.00000

 Dipole moment (field-independent basis, Debye):
    X=              0.1884    Y=              0.0311    Z=              0.0054  Tot=              0.1910
 Quadrupole moment (field-independent basis, Debye-Ang):
   XX=            -54.1988   YY=            -75.0229   ZZ=            -66.5679
   XY=              0.0491   XZ=              0.6055   YZ=             -0.2514

 Normal termination of Gaussian 16 at Mon Nov 13 19:19:30 2023.
