 Gaussian 16, Revision B.01,
 Gaussian 16:  ES64L-G16RevB.01 20-Dec-2017

 -------------------------
 #P B3LYP/6-311+g(d) force
 -------------------------

 ------------------------------
 Gaussian input prepared by ASE
 ------------------------------
 Symbolic Z-matrix:
 Charge =  0 Multiplicity = 2

                         Standard orientation:
 ---------------------------------------------------------------------
 Center     Atomic      Atomic             Coordinates (Angstroms)
 Number     Number       Type             X           Y           Z
 ---------------------------------------------------------------------
      1         11           0        0.746952    0.642020   -1.283227
      2         11           0        1.477987   -1.997884   -1.102894
      3         11           0        0.018576    3.318467   -0.411103
      4         11           0       -0.062309    0.981607    1.316227
      5         11           0        2.129809   -0.666195    1.203317
      6         11           0       -0.770170   -1.506645    0.396512
      7         11           0       -3.540844   -0.771371   -0.118832
 ---------------------------------------------------------------------

 SCF Done:  E(UB3LYP) =  -1136.07483752     A.U. after   21 cycles

 The electronic state is 2-A.
 Alpha  occ. eigenvalues --  -38.44626 -38.44373 -38.44201 -38.44046 -38.43989
 Alpha  occ. eigenvalues --  -38.43914 -38.43234  -2.20758  -2.20522  -2.20431
 Alpha  occ. eigenvalues --   -2.20225  -2.19964  -2.19730  -2.19457  -1.14711
 Alpha  occ. eigenvalues --   -1.14560  -1.14511  -1.14432  -1.14320  -1.14172
 Alpha  occ. eigenvalues --   -1.14059  -1.14000  -1.13892  -1.13881  -1.13772
 Alpha  occ. eigenvalues --   -1.13757  -1.13596  -1.13568  -1.13552  -1.13496
 Alpha  occ. eigenvalues --   -1.13372  -1.13358  -1.13128  -1.13085  -1.12980
 Alpha  occ. eigenvalues --   -0.20720  -0.13498  -0.12551  -0.11898
 Alpha virt. eigenvalues --   -0.05690  -0.05301  -0.03699  -0.03287  -0.02750
 Alpha virt. eigenvalues --   -0.02563  -0.01481  -0.01056  -0.00259   0.00250
 Alpha virt. eigenvalues --    0.00323   0.00702   0.00812   0.00914   0.01087

  Beta  occ. eigenvalues --  -38.44582 -38.44315 -38.44137 -38.44039 -38.43930
  Beta  occ. eigenvalues --  -38.43921 -38.43208  -2.20681  -2.20421  -2.20323
  Beta  occ. eigenvalues --   -2.20122  -2.19952  -2.19744  -2.19419  -1.14664
  Beta  occ. eigenvalues --   -1.14472  -1.14423  -1.14377  -1.14222  -1.14102
  Beta  occ. eigenvalues --   -1.13977  -1.13935  -1.13832  -1.13787  -1.13700
  Beta  occ. eigenvalues --   -1.13678  -1.13571  -1.13545  -1.13527  -1.13504
  Beta  occ. eigenvalues --   -1.13378  -1.13368  -1.13101  -1.13026  -1.12936
  Beta  occ. eigenvalues --   -0.19856  -0.13286  -0.12434
  Beta virt. eigenvalues --   -0.07444  -0.05570  -0.05181  -0.03394  -0.02853
  Beta virt. eigenvalues --   -0.02071  -0.01777  -0.01196  -0.00942  -0.00010
  Beta virt. eigenvalues --    0.00302   0.00318   0.00793   0.00868   0.01038

 Mulliken charges and spin densities:
               1          2
     1  Na  -0.836852   0.313334
     2  Na   0.771005   0.092417
     3  Na   0.330512   0.039681
     4  Na  -0.112188   0.188981
     5  Na   0.652522   0.180675
     6  Na  -0.370406   0.295971
     7  Na  -0.434594  -0.111060
 Sum of Mulliken charges =  -0.00000   1.00000

 Dipole moment (field-independent basis, Debye):
    X=              0.0751    Y=              0.4700    Z=             -0.2854  Tot=              0.5550
 Quadrupole moment (field-independent basis, Debye-Ang):
   XX=            -61.6375   YY=            -61.6812   ZZ=            -70.2110
   XY=             -4.1817   XZ=              2.1230   YZ=              0.5594

 Normal termination of Gaussian 16 at Mon Nov 13 19:38:05 2023.
