 Gaussian 16, Revision B.01,
 Gaussian 16:  ES64L-G16RevB.01 20-Dec-2017

 -------------------------
 #P B3LYP/6-311+g(d) force
 -------------------------

 ------------------------------
 Gaussian input prepared by ASE
 ------------------------------
 Symbolic Z-matrix:
 Charge =  0 Multiplicity = 2

                         Standard orientation:
 ---------------------------------------------------------------------
 Center     Atomic      Atomic             Coordinates (Angstroms)
 Number     Number       Type             X           Y           Z
 ---------------------------------------------------------------------
      1         11           0       -0.167974   -0.368862   -1.093117
      2         11           0       -0.298501    2.599489   -0.632191
      3         11           0       -2.868067   -1.577363   -0.583802
      4         11           0       -1.933339    0.748228    1.059641
      5         11           0        1.054406    0.809330    1.362524
      6         11           0        2.818562   -0.093330   -0.897002
      7         11           0        1.394913   -2.117493    0.783948
 ---------------------------------------------------------------------

 SCF Done:  E(UB3LYP) =  -1136.10477459     A.U. after   20 cycles

 The electronic state is 2-A.
 Alpha  occ. eigenvalues --  -38.44257 -38.43788 -38.43681 -38.43499 -38.43170
 Alpha  occ. eigenvalues --  -38.43126 -38.42931  -2.20250  -2.19776  -2.19587
 Alpha  occ. eigenvalues --   -2.19566  -2.19365  -2.19222  -2.19118  -1.14016
 Alpha  occ. eigenvalues --   -1.13915  -1.13869  -1.13538  -1.13432  -1.13430
 Alpha  occ. eigenvalues --   -1.13399  -1.13358  -1.13276  -1.13243  -1.13172
 Alpha  occ. eigenvalues --   -1.13119  -1.13114  -1.13004  -1.12954  -1.12916
 Alpha  occ. eigenvalues --   -1.12855  -1.12811  -1.12732  -1.12708  -1.12697
 Alpha  occ. eigenvalues --   -0.20257  -0.13939  -0.12322  -0.11245
 Alpha virt. eigenvalues --   -0.05592  -0.04688  -0.04200  -0.03376  -0.02638
 Alpha virt. eigenvalues --   -0.02166  -0.01475  -0.00838  -0.00326   0.00354
 Alpha virt. eigenvalues --    0.00449   0.00579   0.00810   0.00962   0.00974

  Beta  occ. eigenvalues --  -38.44231 -38.43764 -38.43675 -38.43471 -38.43112
  Beta  occ. eigenvalues --  -38.43110 -38.42880  -2.20206  -2.19735  -2.19565
  Beta  occ. eigenvalues --   -2.19531  -2.19262  -2.19135  -2.19095  -1.13991
  Beta  occ. eigenvalues --   -1.13868  -1.13828  -1.13506  -1.13400  -1.13375
  Beta  occ. eigenvalues --   -1.13372  -1.13331  -1.13256  -1.13194  -1.13157
  Beta  occ. eigenvalues --   -1.13093  -1.13061  -1.12929  -1.12877  -1.12857
  Beta  occ. eigenvalues --   -1.12772  -1.12744  -1.12707  -1.12677  -1.12647
  Beta  occ. eigenvalues --   -0.19452  -0.13714  -0.12086
  Beta virt. eigenvalues --   -0.07078  -0.05487  -0.04649  -0.03927  -0.02822
  Beta virt. eigenvalues --   -0.02030  -0.01490  -0.01055  -0.00780  -0.00049
  Beta virt. eigenvalues --    0.00391   0.00457   0.00608   0.00859   0.00983

 Mulliken charges and spin densities:
               1          2
     1  Na  -0.763596   0.164990
     2  Na  -0.023427   0.147716
     3  Na   0.527426   0.016971
     4  Na  -0.033359   0.102139
     5  Na  -0.010538   0.395004
     6  Na   0.274175   0.029812
     7  Na   0.029320   0.143368
 Sum of Mulliken charges =  -0.00000   1.00000

 Dipole moment (field-independent basis, Debye):
    X=              0.3495    Y=             -0.1305    Z=             -0.0371  Tot=              0.3749
 Quadrupole moment (field-independent basis, Debye-Ang):
   XX=            -56.6559   YY=            -65.5320   ZZ=            -70.5717
   XY=             -0.0390   XZ=             -1.5067   YZ=             -1.9533

 Normal termination of Gaussian 16 at Mon Nov 13 17:52:31 2023.
