 Gaussian 16, Revision B.01,
 Gaussian 16:  ES64L-G16RevB.01 20-Dec-2017

 -------------------------
 #P B3LYP/6-311+g(d) force
 -------------------------

 ------------------------------
 Gaussian input prepared by ASE
 ------------------------------
 Symbolic Z-matrix:
 Charge =  0 Multiplicity = 2

                         Standard orientation:
 ---------------------------------------------------------------------
 Center     Atomic      Atomic             Coordinates (Angstroms)
 Number     Number       Type             X           Y           Z
 ---------------------------------------------------------------------
      1         11           0       -1.243585   -1.689431   -0.911356
      2         11           0       -0.033901   -2.411507    1.725815
      3         11           0       -3.110959    0.631956   -1.231980
      4         11           0       -1.646807    1.740728    1.134573
      5         11           0        3.051179   -1.158768   -1.111531
      6         11           0        0.775353    0.133311    0.361996
      7         11           0        2.208719    2.753711    0.032483
 ---------------------------------------------------------------------

 SCF Done:  E(UB3LYP) =  -1136.10941399     A.U. after   23 cycles

 The electronic state is 2-A.
 Alpha  occ. eigenvalues --  -38.44788 -38.44202 -38.43964 -38.43836 -38.43786
 Alpha  occ. eigenvalues --  -38.43751 -38.42554  -2.20605  -2.19997  -2.19863
 Alpha  occ. eigenvalues --   -2.19751  -2.19735  -2.19699  -2.18759  -1.14304
 Alpha  occ. eigenvalues --   -1.14253  -1.14193  -1.13719  -1.13659  -1.13613
 Alpha  occ. eigenvalues --   -1.13613  -1.13595  -1.13578  -1.13513  -1.13467
 Alpha  occ. eigenvalues --   -1.13431  -1.13385  -1.13356  -1.13319  -1.13290
 Alpha  occ. eigenvalues --   -1.13283  -1.13230  -1.12455  -1.12419  -1.12384
 Alpha  occ. eigenvalues --   -0.18609  -0.13434  -0.12354  -0.10866
 Alpha virt. eigenvalues --   -0.06036  -0.05226  -0.03946  -0.03620  -0.02865
 Alpha virt. eigenvalues --   -0.02142  -0.01537  -0.01195  -0.00568  -0.00038
 Alpha virt. eigenvalues --    0.00165   0.00357   0.00432   0.00740   0.00886

  Beta  occ. eigenvalues --  -38.44737 -38.44213 -38.43944 -38.43798 -38.43732
  Beta  occ. eigenvalues --  -38.43727 -38.42526  -2.20508  -2.20018  -2.19828
  Beta  occ. eigenvalues --   -2.19703  -2.19672  -2.19603  -2.18717  -1.14241
  Beta  occ. eigenvalues --   -1.14182  -1.14128  -1.13733  -1.13674  -1.13617
  Beta  occ. eigenvalues --   -1.13588  -1.13551  -1.13517  -1.13480  -1.13442
  Beta  occ. eigenvalues --   -1.13393  -1.13314  -1.13308  -1.13276  -1.13250
  Beta  occ. eigenvalues --   -1.13213  -1.13174  -1.12410  -1.12367  -1.12340
  Beta  occ. eigenvalues --   -0.17948  -0.12995  -0.12168
  Beta virt. eigenvalues --   -0.07224  -0.05780  -0.04917  -0.03647  -0.03217
  Beta virt. eigenvalues --   -0.02372  -0.01652  -0.01367  -0.00911  -0.00248
  Beta virt. eigenvalues --    0.00068   0.00256   0.00417   0.00538   0.00771

 Mulliken charges and spin densities:
               1          2
     1  Na   1.270884   0.440273
     2  Na   1.430801   0.094808
     3  Na  -0.370566   0.035700
     4  Na   0.819239   0.039697
     5  Na   0.787777   0.154965
     6  Na  -3.936117   0.434994
     7  Na  -0.002017  -0.200437
 Sum of Mulliken charges =  -0.00000   1.00000

 Dipole moment (field-independent basis, Debye):
    X=              0.4447    Y=             -0.0103    Z=              0.0323  Tot=              0.4460
 Quadrupole moment (field-independent basis, Debye-Ang):
   XX=            -60.1568   YY=            -62.8938   ZZ=            -68.6143
   XY=             -1.3303   XZ=             -1.9052   YZ=             -0.3365

 Normal termination of Gaussian 16 at Mon Nov 13 18:32:09 2023.
