 Gaussian 16, Revision B.01,
 Gaussian 16:  ES64L-G16RevB.01 20-Dec-2017

 -------------------------
 #P B3LYP/6-311+g(d) force
 -------------------------

 ------------------------------
 Gaussian input prepared by ASE
 ------------------------------
 Symbolic Z-matrix:
 Charge =  0 Multiplicity = 2

                         Standard orientation:
 ---------------------------------------------------------------------
 Center     Atomic      Atomic             Coordinates (Angstroms)
 Number     Number       Type             X           Y           Z
 ---------------------------------------------------------------------
      1         11           0       -1.176008   -2.013445    0.890414
      2         11           0        1.642922    3.048329    0.199998
      3         11           0        3.711414   -1.366911    0.382992
      4         11           0        1.057081   -1.342508   -1.003451
      5         11           0       -0.429011    1.272368   -1.037337
      6         11           0       -1.896928    0.821969    1.544230
      7         11           0       -2.909470   -0.419800   -0.976846
 ---------------------------------------------------------------------

 SCF Done:  E(UB3LYP) =  -1136.10141572     A.U. after   22 cycles

 The electronic state is 2-A.
 Alpha  occ. eigenvalues --  -38.45117 -38.44680 -38.44290 -38.44197 -38.43936
 Alpha  occ. eigenvalues --  -38.43425 -38.42893  -2.20900  -2.20682  -2.20277
 Alpha  occ. eigenvalues --   -2.20200  -2.19735  -2.19401  -2.18990  -1.14602
 Alpha  occ. eigenvalues --   -1.14544  -1.14532  -1.14436  -1.14364  -1.14313
 Alpha  occ. eigenvalues --   -1.14036  -1.13970  -1.13885  -1.13871  -1.13816
 Alpha  occ. eigenvalues --   -1.13742  -1.13456  -1.13380  -1.13364  -1.13129
 Alpha  occ. eigenvalues --   -1.13067  -1.13011  -1.12656  -1.12632  -1.12601
 Alpha  occ. eigenvalues --   -0.19374  -0.13477  -0.12176  -0.10902
 Alpha virt. eigenvalues --   -0.06842  -0.05588  -0.03597  -0.03476  -0.02691
 Alpha virt. eigenvalues --   -0.02185  -0.02074  -0.01163  -0.00371  -0.00070
 Alpha virt. eigenvalues --    0.00028   0.00188   0.00396   0.00654   0.00746

  Beta  occ. eigenvalues --  -38.45117 -38.44647 -38.44257 -38.44133 -38.43939
  Beta  occ. eigenvalues --  -38.43400 -38.42848  -2.20899  -2.20628  -2.20223
  Beta  occ. eigenvalues --   -2.20083  -2.19740  -2.19358  -2.18915  -1.14602
  Beta  occ. eigenvalues --   -1.14541  -1.14531  -1.14407  -1.14324  -1.14230
  Beta  occ. eigenvalues --   -1.13981  -1.13909  -1.13839  -1.13795  -1.13735
  Beta  occ. eigenvalues --   -1.13658  -1.13458  -1.13380  -1.13368  -1.13095
  Beta  occ. eigenvalues --   -1.13034  -1.12960  -1.12614  -1.12586  -1.12497
  Beta  occ. eigenvalues --   -0.18545  -0.13322  -0.12051
  Beta virt. eigenvalues --   -0.06839  -0.06555  -0.05464  -0.03517  -0.02990
  Beta virt. eigenvalues --   -0.02244  -0.01974  -0.01248  -0.01013  -0.00040
  Beta virt. eigenvalues --    0.00020   0.00060   0.00267   0.00515   0.00685

 Mulliken charges and spin densities:
               1          2
     1  Na  -0.201500   0.211299
     2  Na   0.048332   0.056055
     3  Na  -0.186259  -0.021281
     4  Na   0.113586   0.160111
     5  Na  -0.039896   0.150227
     6  Na  -0.887046   0.423082
     7  Na   1.152783   0.020507
 Sum of Mulliken charges =  -0.00000   1.00000

 Dipole moment (field-independent basis, Debye):
    X=              0.3798    Y=             -0.1742    Z=              0.5243  Tot=              0.6705
 Quadrupole moment (field-independent basis, Debye-Ang):
   XX=            -50.7551   YY=            -69.5035   ZZ=            -72.6014
   XY=              2.2959   XZ=              4.8927   YZ=              0.9748

 Normal termination of Gaussian 16 at Mon Nov 13 17:28:40 2023.
