 Gaussian 16, Revision B.01,
 Gaussian 16:  ES64L-G16RevB.01 20-Dec-2017

 -------------------------
 #P B3LYP/6-311+g(d) force
 -------------------------

 ------------------------------
 Gaussian input prepared by ASE
 ------------------------------
 Symbolic Z-matrix:
 Charge =  0 Multiplicity = 2

                         Standard orientation:
 ---------------------------------------------------------------------
 Center     Atomic      Atomic             Coordinates (Angstroms)
 Number     Number       Type             X           Y           Z
 ---------------------------------------------------------------------
      1         11           0       -0.626481   -1.360711   -0.824464
      2         11           0       -0.575804    0.009794    1.562329
      3         11           0       -2.996732   -0.000578    0.032406
      4         11           0       -0.624662    1.352157   -0.837527
      5         11           0        1.574127    1.512541    0.776285
      6         11           0        1.674055   -0.008107   -1.500339
      7         11           0        1.575497   -1.505096    0.791310
 ---------------------------------------------------------------------

 SCF Done:  E(UB3LYP) =  -1136.03950717     A.U. after   24 cycles

 The electronic state is 2-A.
 Alpha  occ. eigenvalues --  -38.44987 -38.44843 -38.44607 -38.43793 -38.43784
 Alpha  occ. eigenvalues --  -38.43783 -38.43763  -2.21273  -2.21249  -2.20647
 Alpha  occ. eigenvalues --   -2.20191  -2.20124  -2.20010  -2.19988  -1.15243
 Alpha  occ. eigenvalues --   -1.15104  -1.15054  -1.14987  -1.14929  -1.14903
 Alpha  occ. eigenvalues --   -1.14447  -1.14273  -1.14271  -1.14077  -1.13986
 Alpha  occ. eigenvalues --   -1.13962  -1.13724  -1.13712  -1.13688  -1.13622
 Alpha  occ. eigenvalues --   -1.13607  -1.13572  -1.13519  -1.13461  -1.13377
 Alpha  occ. eigenvalues --   -0.22368  -0.14489  -0.13198  -0.12061
 Alpha virt. eigenvalues --   -0.05779  -0.04146  -0.03827  -0.03676  -0.02860
 Alpha virt. eigenvalues --   -0.02702  -0.01372  -0.00354  -0.00203   0.00269
 Alpha virt. eigenvalues --    0.00738   0.01010   0.01078   0.01081   0.01100

  Beta  occ. eigenvalues --  -38.44919 -38.44757 -38.44605 -38.43764 -38.43755
  Beta  occ. eigenvalues --  -38.43740 -38.43721  -2.21152  -2.21099  -2.20644
  Beta  occ. eigenvalues --   -2.20123  -2.20059  -2.19963  -2.19941  -1.15169
  Beta  occ. eigenvalues --   -1.15017  -1.14934  -1.14880  -1.14846  -1.14795
  Beta  occ. eigenvalues --   -1.14426  -1.14272  -1.14247  -1.14022  -1.13944
  Beta  occ. eigenvalues --   -1.13927  -1.13670  -1.13634  -1.13602  -1.13548
  Beta  occ. eigenvalues --   -1.13535  -1.13528  -1.13485  -1.13421  -1.13327
  Beta  occ. eigenvalues --   -0.21476  -0.14254  -0.11783
  Beta virt. eigenvalues --   -0.08577  -0.05702  -0.03682  -0.03370  -0.03309
  Beta virt. eigenvalues --   -0.02078  -0.01835  -0.01323  -0.00193  -0.00083
  Beta virt. eigenvalues --    0.00310   0.00804   0.01101   0.01112   0.01127

 Mulliken charges and spin densities:
               1          2
     1  Na  -0.499420   0.311114
     2  Na  -0.156927   0.260800
     3  Na   0.928052  -0.042811
     4  Na  -0.493258   0.314127
     5  Na  -0.045907   0.048522
     6  Na   0.310077   0.057509
     7  Na  -0.042618   0.050740
 Sum of Mulliken charges =  -0.00000   1.00000

 Dipole moment (field-independent basis, Debye):
    X=             -0.3592    Y=             -0.0035    Z=              0.0934  Tot=              0.3712
 Quadrupole moment (field-independent basis, Debye-Ang):
   XX=            -55.5614   YY=            -76.8468   ZZ=            -64.7863
   XY=             -0.0012   XZ=              0.1720   YZ=             -0.0108

 Normal termination of Gaussian 16 at Mon Nov 13 20:26:38 2023.
