 Gaussian 16, Revision B.01,
 Gaussian 16:  ES64L-G16RevB.01 20-Dec-2017

 -------------------------
 #P B3LYP/6-311+g(d) force
 -------------------------

 ------------------------------
 Gaussian input prepared by ASE
 ------------------------------
 Symbolic Z-matrix:
 Charge =  0 Multiplicity = 2

                         Standard orientation:
 ---------------------------------------------------------------------
 Center     Atomic      Atomic             Coordinates (Angstroms)
 Number     Number       Type             X           Y           Z
 ---------------------------------------------------------------------
      1         11           0        0.064460   -1.294724   -0.690784
      2         11           0        2.915757   -0.651217   -1.378158
      3         11           0        1.027657   -0.932875    2.131655
      4         11           0        2.287757    1.397588    0.721700
      5         11           0       -0.297493    1.688090   -0.773372
      6         11           0       -3.125411    1.379117    0.160564
      7         11           0       -2.872727   -1.585979   -0.171605
 ---------------------------------------------------------------------

 SCF Done:  E(UB3LYP) =  -1136.10192379     A.U. after   25 cycles

 The electronic state is 2-A.
 Alpha  occ. eigenvalues --  -38.45131 -38.44582 -38.44408 -38.44316 -38.44108
 Alpha  occ. eigenvalues --  -38.43277 -38.43267  -2.21054  -2.20462  -2.20291
 Alpha  occ. eigenvalues --   -2.20247  -2.20113  -2.19354  -2.19250  -1.14750
 Alpha  occ. eigenvalues --   -1.14727  -1.14644  -1.14205  -1.14160  -1.14098
 Alpha  occ. eigenvalues --   -1.14005  -1.14001  -1.13920  -1.13914  -1.13883
 Alpha  occ. eigenvalues --   -1.13846  -1.13799  -1.13752  -1.13690  -1.13125
 Alpha  occ. eigenvalues --   -1.13019  -1.12990  -1.12897  -1.12868  -1.12855
 Alpha  occ. eigenvalues --   -0.19539  -0.14661  -0.11627  -0.11230
 Alpha virt. eigenvalues --   -0.06898  -0.05562  -0.03848  -0.03376  -0.02629
 Alpha virt. eigenvalues --   -0.02499  -0.02410  -0.01076  -0.00384  -0.00044
 Alpha virt. eigenvalues --    0.00158   0.00325   0.00569   0.00729   0.00782

  Beta  occ. eigenvalues --  -38.45068 -38.44590 -38.44414 -38.44222 -38.44074
  Beta  occ. eigenvalues --  -38.43266 -38.43240  -2.20939  -2.20477  -2.20303
  Beta  occ. eigenvalues --   -2.20078  -2.20057  -2.19310  -2.19232  -1.14660
  Beta  occ. eigenvalues --   -1.14656  -1.14556  -1.14217  -1.14170  -1.14104
  Beta  occ. eigenvalues --   -1.14009  -1.13921  -1.13901  -1.13893  -1.13797
  Beta  occ. eigenvalues --   -1.13769  -1.13725  -1.13694  -1.13605  -1.13105
  Beta  occ. eigenvalues --   -1.12971  -1.12934  -1.12878  -1.12851  -1.12828
  Beta  occ. eigenvalues --   -0.18793  -0.14468  -0.11081
  Beta virt. eigenvalues --   -0.07394  -0.06706  -0.05452  -0.03338  -0.03167
  Beta virt. eigenvalues --   -0.02421  -0.01892  -0.01496  -0.00922  -0.00128
  Beta virt. eigenvalues --   -0.00000   0.00219   0.00339   0.00729   0.00774

 Mulliken charges and spin densities:
               1          2
     1  Na  -1.123985   0.279713
     2  Na   0.993573   0.054042
     3  Na  -0.140067   0.440435
     4  Na   0.263429   0.083076
     5  Na  -0.253752   0.189484
     6  Na   0.202901   0.021207
     7  Na   0.057900  -0.067957
 Sum of Mulliken charges =  -0.00000   1.00000

 Dipole moment (field-independent basis, Debye):
    X=              0.0084    Y=             -0.2221    Z=              0.3695  Tot=              0.4312
 Quadrupole moment (field-independent basis, Debye-Ang):
   XX=            -47.4531   YY=            -77.7878   ZZ=            -69.5699
   XY=              0.6355   XZ=             -2.7083   YZ=              1.5753

 Normal termination of Gaussian 16 at Mon Nov 13 15:12:17 2023.
