 Gaussian 16, Revision B.01,
 Gaussian 16:  ES64L-G16RevB.01 20-Dec-2017

 -------------------------
 #P B3LYP/6-311+g(d) force
 -------------------------

 ------------------------------
 Gaussian input prepared by ASE
 ------------------------------
 Symbolic Z-matrix:
 Charge =  0 Multiplicity = 2

                         Standard orientation:
 ---------------------------------------------------------------------
 Center     Atomic      Atomic             Coordinates (Angstroms)
 Number     Number       Type             X           Y           Z
 ---------------------------------------------------------------------
      1         11           0        0.533594    0.126366   -1.371737
      2         11           0       -0.654168   -2.140628   -0.365232
      3         11           0       -2.202419    0.353338   -1.316930
      4         11           0       -0.288765    2.152079    0.302179
      5         11           0        3.224468    0.021383   -0.367945
      6         11           0        1.067598   -0.363289    1.495059
      7         11           0       -1.680308   -0.149249    1.624606
 ---------------------------------------------------------------------

 SCF Done:  E(UB3LYP) =  -1136.08150598     A.U. after   31 cycles

 The electronic state is 2-A.
 Alpha  occ. eigenvalues --  -38.44575 -38.44403 -38.44251 -38.44174 -38.43951
 Alpha  occ. eigenvalues --  -38.42655 -38.42588  -2.20559  -2.20556  -2.20498
 Alpha  occ. eigenvalues --   -2.20347  -2.20166  -2.18748  -2.18683  -1.14578
 Alpha  occ. eigenvalues --   -1.14477  -1.14380  -1.14238  -1.14235  -1.14203
 Alpha  occ. eigenvalues --   -1.14155  -1.14134  -1.14065  -1.13933  -1.13904
 Alpha  occ. eigenvalues --   -1.13864  -1.13798  -1.13735  -1.13698  -1.12483
 Alpha  occ. eigenvalues --   -1.12418  -1.12384  -1.12339  -1.12315  -1.12237
 Alpha  occ. eigenvalues --   -0.21281  -0.13842  -0.13010  -0.11834
 Alpha virt. eigenvalues --   -0.05735  -0.04180  -0.03867  -0.03343  -0.02992
 Alpha virt. eigenvalues --   -0.02857  -0.01502  -0.00525  -0.00230   0.00299
 Alpha virt. eigenvalues --    0.00643   0.00715   0.01014   0.01054   0.01104

  Beta  occ. eigenvalues --  -38.44569 -38.44333 -38.44205 -38.44106 -38.43889
  Beta  occ. eigenvalues --  -38.42637 -38.42572  -2.20497  -2.20434  -2.20430
  Beta  occ. eigenvalues --   -2.20266  -2.20059  -2.18723  -2.18659  -1.14495
  Beta  occ. eigenvalues --   -1.14368  -1.14328  -1.14180  -1.14157  -1.14148
  Beta  occ. eigenvalues --   -1.14100  -1.14057  -1.14044  -1.13873  -1.13846
  Beta  occ. eigenvalues --   -1.13792  -1.13730  -1.13632  -1.13625  -1.12465
  Beta  occ. eigenvalues --   -1.12408  -1.12332  -1.12295  -1.12270  -1.12227
  Beta  occ. eigenvalues --   -0.20434  -0.13670  -0.11528
  Beta virt. eigenvalues --   -0.08504  -0.05654  -0.03585  -0.03336  -0.03238
  Beta virt. eigenvalues --   -0.02254  -0.02014  -0.01420  -0.00233  -0.00183
  Beta virt. eigenvalues --    0.00330   0.00711   0.00869   0.01037   0.01079

 Mulliken charges and spin densities:
               1          2
     1  Na   0.418406   0.272675
     2  Na  -1.186642   0.309042
     3  Na   1.149510  -0.190278
     4  Na  -1.254762   0.147153
     5  Na  -0.298145   0.093507
     6  Na   0.082922   0.140553
     7  Na   1.088711   0.227347
 Sum of Mulliken charges =  -0.00000   1.00000

 Dipole moment (field-independent basis, Debye):
    X=              0.2310    Y=             -0.0043    Z=              0.0430  Tot=              0.2350
 Quadrupole moment (field-independent basis, Debye-Ang):
   XX=            -55.1514   YY=            -75.6009   ZZ=            -64.2591
   XY=              0.0855   XZ=             -0.2570   YZ=              1.4637

 Normal termination of Gaussian 16 at Mon Nov 13 18:41:46 2023.
