 Gaussian 16, Revision B.01,
 Gaussian 16:  ES64L-G16RevB.01 20-Dec-2017

 -------------------------
 #P B3LYP/6-311+g(d) force
 -------------------------

 ------------------------------
 Gaussian input prepared by ASE
 ------------------------------
 Symbolic Z-matrix:
 Charge =  0 Multiplicity = 2

                         Standard orientation:
 ---------------------------------------------------------------------
 Center     Atomic      Atomic             Coordinates (Angstroms)
 Number     Number       Type             X           Y           Z
 ---------------------------------------------------------------------
      1         11           0        0.371942   -1.805896   -0.650329
      2         11           0       -3.022809    2.138902   -1.375575
      3         11           0       -3.985706   -1.784505    0.311538
      4         11           0       -1.674566    0.127986    0.396448
      5         11           0        0.624527    1.672861    1.558235
      6         11           0        2.630013   -0.395927    0.728848
      7         11           0        5.056598    0.046580   -0.969165
 ---------------------------------------------------------------------

 SCF Done:  E(UB3LYP) =  -1136.09244752     A.U. after   29 cycles

 The electronic state is 2-A.
 Alpha  occ. eigenvalues --  -38.45502 -38.45333 -38.44794 -38.44424 -38.43776
 Alpha  occ. eigenvalues --  -38.43467 -38.43131  -2.21357  -2.21157  -2.20633
 Alpha  occ. eigenvalues --   -2.20241  -2.19761  -2.19342  -2.19228  -1.15058
 Alpha  occ. eigenvalues --   -1.15034  -1.14978  -1.14839  -1.14787  -1.14744
 Alpha  occ. eigenvalues --   -1.14322  -1.14249  -1.14237  -1.13955  -1.13869
 Alpha  occ. eigenvalues --   -1.13856  -1.13467  -1.13444  -1.13407  -1.13112
 Alpha  occ. eigenvalues --   -1.12994  -1.12977  -1.12931  -1.12918  -1.12786
 Alpha  occ. eigenvalues --   -0.17967  -0.14711  -0.11652  -0.11193
 Alpha virt. eigenvalues --   -0.07165  -0.05222  -0.04108  -0.03265  -0.03225
 Alpha virt. eigenvalues --   -0.02347  -0.02005  -0.01674  -0.00907  -0.00390
 Alpha virt. eigenvalues --   -0.00203  -0.00017   0.00364   0.00419   0.00688

  Beta  occ. eigenvalues --  -38.45486 -38.45234 -38.44692 -38.44382 -38.43772
  Beta  occ. eigenvalues --  -38.43508 -38.43116  -2.21333  -2.20972  -2.20444
  Beta  occ. eigenvalues --   -2.20164  -2.19761  -2.19420  -2.19212  -1.15045
  Beta  occ. eigenvalues --   -1.15007  -1.14962  -1.14717  -1.14661  -1.14615
  Beta  occ. eigenvalues --   -1.14194  -1.14120  -1.14112  -1.13905  -1.13818
  Beta  occ. eigenvalues --   -1.13795  -1.13489  -1.13423  -1.13376  -1.13155
  Beta  occ. eigenvalues --   -1.13040  -1.13017  -1.12922  -1.12843  -1.12788
  Beta  occ. eigenvalues --   -0.17468  -0.13798  -0.11042
  Beta virt. eigenvalues --   -0.08034  -0.06897  -0.04645  -0.04034  -0.03205
  Beta virt. eigenvalues --   -0.02967  -0.01906  -0.01492  -0.01216  -0.00516
  Beta virt. eigenvalues --   -0.00180  -0.00003   0.00076   0.00394   0.00484

 Mulliken charges and spin densities:
               1          2
     1  Na   0.923434   0.296375
     2  Na   0.624459   0.464656
     3  Na   0.505154   0.112778
     4  Na  -3.554610  -0.060532
     5  Na   1.585384  -0.007622
     6  Na   0.650153  -0.308308
     7  Na  -0.733976   0.502653
 Sum of Mulliken charges =  -0.00000   1.00000

 Dipole moment (field-independent basis, Debye):
    X=             -0.4111    Y=              0.2377    Z=             -0.8527  Tot=              0.9761
 Quadrupole moment (field-independent basis, Debye-Ang):
   XX=            -59.5352   YY=            -71.5621   ZZ=            -66.5405
   XY=              1.5423   XZ=             -0.2152   YZ=             -2.6339

 Normal termination of Gaussian 16 at Mon Nov 13 15:02:30 2023.
