 Gaussian 16, Revision B.01,
 Gaussian 16:  ES64L-G16RevB.01 20-Dec-2017

 -------------------------
 #P B3LYP/6-311+g(d) force
 -------------------------

 ------------------------------
 Gaussian input prepared by ASE
 ------------------------------
 Symbolic Z-matrix:
 Charge =  0 Multiplicity = 2

                         Standard orientation:
 ---------------------------------------------------------------------
 Center     Atomic      Atomic             Coordinates (Angstroms)
 Number     Number       Type             X           Y           Z
 ---------------------------------------------------------------------
      1         11           0       -0.118308   -1.264544   -0.225456
      2         11           0        2.597645   -0.817925   -1.414334
      3         11           0        2.270282   -0.912012    1.553740
      4         11           0        2.419263    1.736194    0.150561
      5         11           0       -0.569380    1.709308   -0.166309
      6         11           0       -3.525583    1.257288    0.057960
      7         11           0       -3.073919   -1.708310    0.043839
 ---------------------------------------------------------------------

 SCF Done:  E(UB3LYP) =  -1136.09212152     A.U. after   30 cycles

 The electronic state is 2-A.
 Alpha  occ. eigenvalues --  -38.45487 -38.44890 -38.44885 -38.44287 -38.43915
 Alpha  occ. eigenvalues --  -38.43752 -38.43487  -2.21363  -2.20887  -2.20766
 Alpha  occ. eigenvalues --   -2.20283  -2.19935  -2.19816  -2.19447  -1.15062
 Alpha  occ. eigenvalues --   -1.15043  -1.15002  -1.14610  -1.14573  -1.14506
 Alpha  occ. eigenvalues --   -1.14474  -1.14401  -1.14398  -1.13985  -1.13971
 Alpha  occ. eigenvalues --   -1.13915  -1.13683  -1.13567  -1.13536  -1.13511
 Alpha  occ. eigenvalues --   -1.13455  -1.13405  -1.13117  -1.13096  -1.13060
 Alpha  occ. eigenvalues --   -0.19601  -0.15477  -0.11563  -0.10388
 Alpha virt. eigenvalues --   -0.07517  -0.06409  -0.03755  -0.03482  -0.03085
 Alpha virt. eigenvalues --   -0.01883  -0.01781  -0.01490  -0.00734  -0.00495
 Alpha virt. eigenvalues --    0.00094   0.00237   0.00555   0.00592   0.00637

  Beta  occ. eigenvalues --  -38.45493 -38.44900 -38.44830 -38.44254 -38.43833
  Beta  occ. eigenvalues --  -38.43728 -38.43476  -2.21374  -2.20792  -2.20783
  Beta  occ. eigenvalues --   -2.20230  -2.19791  -2.19774  -2.19431  -1.15074
  Beta  occ. eigenvalues --   -1.15050  -1.15006  -1.14555  -1.14503  -1.14480
  Beta  occ. eigenvalues --   -1.14414  -1.14407  -1.14406  -1.13951  -1.13930
  Beta  occ. eigenvalues --   -1.13824  -1.13614  -1.13504  -1.13472  -1.13412
  Beta  occ. eigenvalues --   -1.13388  -1.13334  -1.13114  -1.13082  -1.13023
  Beta  occ. eigenvalues --   -0.18884  -0.15276  -0.11385
  Beta virt. eigenvalues --   -0.07278  -0.06380  -0.06254  -0.03429  -0.03340
  Beta virt. eigenvalues --   -0.02944  -0.01510  -0.01221  -0.01012  -0.00521
  Beta virt. eigenvalues --   -0.00002   0.00235   0.00257   0.00580   0.00706

 Mulliken charges and spin densities:
               1          2
     1  Na  -1.467682   0.176276
     2  Na   1.184837   0.213100
     3  Na   0.128171   0.443155
     4  Na   0.368258   0.254968
     5  Na  -0.587148  -0.068493
     6  Na   0.356723   0.079929
     7  Na   0.016841  -0.098935
 Sum of Mulliken charges =  -0.00000   1.00000

 Dipole moment (field-independent basis, Debye):
    X=             -1.0894    Y=              0.0185    Z=             -0.4746  Tot=              1.1884
 Quadrupole moment (field-independent basis, Debye-Ang):
   XX=            -44.5256   YY=            -74.7889   ZZ=            -75.0398
   XY=              0.3708   XZ=             -4.1658   YZ=             -0.0979

 Normal termination of Gaussian 16 at Mon Nov 13 15:41:22 2023.
