 Gaussian 16, Revision B.01,
 Gaussian 16:  ES64L-G16RevB.01 20-Dec-2017

 -------------------------
 #P B3LYP/6-311+g(d) force
 -------------------------

 ------------------------------
 Gaussian input prepared by ASE
 ------------------------------
 Symbolic Z-matrix:
 Charge =  0 Multiplicity = 2

                         Standard orientation:
 ---------------------------------------------------------------------
 Center     Atomic      Atomic             Coordinates (Angstroms)
 Number     Number       Type             X           Y           Z
 ---------------------------------------------------------------------
      1         11           0        2.196983   -1.284776   -1.134505
      2         11           0       -1.651454   -2.299244    0.751965
      3         11           0        3.295943   -0.163712    1.422346
      4         11           0        2.083890    1.658987   -0.624672
      5         11           0       -0.457807    0.054094   -0.679669
      6         11           0       -3.435523   -0.190395   -0.409328
      7         11           0       -2.032032    2.225047    0.673863
 ---------------------------------------------------------------------

 SCF Done:  E(UB3LYP) =  -1136.09820198     A.U. after   24 cycles

 The electronic state is 2-A.
 Alpha  occ. eigenvalues --  -38.44803 -38.44494 -38.44343 -38.44153 -38.43537
 Alpha  occ. eigenvalues --  -38.43494 -38.42889  -2.20785  -2.20487  -2.20329
 Alpha  occ. eigenvalues --   -2.20090  -2.19427  -2.19387  -2.19116  -1.14507
 Alpha  occ. eigenvalues --   -1.14435  -1.14424  -1.14284  -1.14197  -1.14122
 Alpha  occ. eigenvalues --   -1.14037  -1.14011  -1.13909  -1.13710  -1.13690
 Alpha  occ. eigenvalues --   -1.13684  -1.13177  -1.13138  -1.13077  -1.13045
 Alpha  occ. eigenvalues --   -1.13037  -1.13008  -1.12807  -1.12754  -1.12683
 Alpha  occ. eigenvalues --   -0.19023  -0.15496  -0.11404  -0.10588
 Alpha virt. eigenvalues --   -0.06372  -0.05906  -0.04507  -0.03382  -0.02565
 Alpha virt. eigenvalues --   -0.02003  -0.01755  -0.01060  -0.00610  -0.00259
 Alpha virt. eigenvalues --    0.00010   0.00234   0.00509   0.00601   0.00645

  Beta  occ. eigenvalues --  -38.44790 -38.44461 -38.44317 -38.44061 -38.43540
  Beta  occ. eigenvalues --  -38.43494 -38.42834  -2.20761  -2.20436  -2.20292
  Beta  occ. eigenvalues --   -2.19918  -2.19433  -2.19389  -2.19024  -1.14493
  Beta  occ. eigenvalues --   -1.14414  -1.14408  -1.14257  -1.14095  -1.14089
  Beta  occ. eigenvalues --   -1.13995  -1.13933  -1.13888  -1.13595  -1.13581
  Beta  occ. eigenvalues --   -1.13568  -1.13176  -1.13133  -1.13082  -1.13038
  Beta  occ. eigenvalues --   -1.13037  -1.12998  -1.12750  -1.12663  -1.12621
  Beta  occ. eigenvalues --   -0.18390  -0.15019  -0.11269
  Beta virt. eigenvalues --   -0.06645  -0.06199  -0.05687  -0.04122  -0.03199
  Beta virt. eigenvalues --   -0.02330  -0.01570  -0.00990  -0.00916  -0.00407
  Beta virt. eigenvalues --   -0.00099   0.00223   0.00362   0.00645   0.00715

 Mulliken charges and spin densities:
               1          2
     1  Na   0.630531   0.169118
     2  Na   0.091220  -0.008036
     3  Na  -0.438761   0.512153
     4  Na   0.494744   0.215172
     5  Na  -3.082011  -0.130906
     6  Na   1.702318   0.219954
     7  Na   0.601958   0.022545
 Sum of Mulliken charges =  -0.00000   1.00000

 Dipole moment (field-independent basis, Debye):
    X=             -0.3880    Y=             -0.1293    Z=             -0.1376  Tot=              0.4315
 Quadrupole moment (field-independent basis, Debye-Ang):
   XX=            -59.3711   YY=            -71.3900   ZZ=            -68.3153
   XY=             -0.2340   XZ=             -2.6900   YZ=              0.3428

 Normal termination of Gaussian 16 at Mon Nov 13 17:55:05 2023.
