 Gaussian 16, Revision B.01,
 Gaussian 16:  ES64L-G16RevB.01 20-Dec-2017

 -------------------------
 #P B3LYP/6-311+g(d) force
 -------------------------

 ------------------------------
 Gaussian input prepared by ASE
 ------------------------------
 Symbolic Z-matrix:
 Charge =  0 Multiplicity = 2

                         Standard orientation:
 ---------------------------------------------------------------------
 Center     Atomic      Atomic             Coordinates (Angstroms)
 Number     Number       Type             X           Y           Z
 ---------------------------------------------------------------------
      1         11           0       -0.884616   -1.155457    1.681731
      2         11           0        2.234826    2.147730   -0.179288
      3         11           0        4.443640    0.127121   -0.044103
      4         11           0        1.582356   -0.774621    0.018896
      5         11           0       -0.777656   -2.249587   -1.106015
      6         11           0       -3.088340   -0.531442   -0.257703
      7         11           0       -3.510210    2.436255   -0.113517
 ---------------------------------------------------------------------

 SCF Done:  E(UB3LYP) =  -1136.09281205     A.U. after   26 cycles

 The electronic state is 2-A.
 Alpha  occ. eigenvalues --  -38.45753 -38.45155 -38.44165 -38.43859 -38.43506
 Alpha  occ. eigenvalues --  -38.43444 -38.43315  -2.21624  -2.21058  -2.20168
 Alpha  occ. eigenvalues --   -2.19950  -2.19505  -2.19298  -2.19240  -1.15346
 Alpha  occ. eigenvalues --   -1.15294  -1.15252  -1.14754  -1.14678  -1.14673
 Alpha  occ. eigenvalues --   -1.13923  -1.13892  -1.13763  -1.13652  -1.13616
 Alpha  occ. eigenvalues --   -1.13553  -1.13239  -1.13145  -1.13103  -1.13047
 Alpha  occ. eigenvalues --   -1.12971  -1.12921  -1.12887  -1.12877  -1.12797
 Alpha  occ. eigenvalues --   -0.18477  -0.15299  -0.11667  -0.09956
 Alpha virt. eigenvalues --   -0.06920  -0.06408  -0.04036  -0.03759  -0.03088
 Alpha virt. eigenvalues --   -0.02002  -0.01668  -0.01394  -0.01066  -0.00342
 Alpha virt. eigenvalues --   -0.00224   0.00018   0.00458   0.00533   0.00601

  Beta  occ. eigenvalues --  -38.45747 -38.45124 -38.44111 -38.43831 -38.43465
  Beta  occ. eigenvalues --  -38.43450 -38.43289  -2.21616  -2.20999  -2.20073
  Beta  occ. eigenvalues --   -2.19909  -2.19431  -2.19260  -2.19244  -1.15344
  Beta  occ. eigenvalues --   -1.15287  -1.15224  -1.14713  -1.14641  -1.14628
  Beta  occ. eigenvalues --   -1.13857  -1.13813  -1.13689  -1.13631  -1.13579
  Beta  occ. eigenvalues --   -1.13473  -1.13187  -1.13095  -1.13043  -1.13032
  Beta  occ. eigenvalues --   -1.12930  -1.12908  -1.12883  -1.12873  -1.12773
  Beta  occ. eigenvalues --   -0.17855  -0.14963  -0.11603
  Beta virt. eigenvalues --   -0.06605  -0.06324  -0.06047  -0.03911  -0.03272
  Beta virt. eigenvalues --   -0.02820  -0.01633  -0.01464  -0.01009  -0.00795
  Beta virt. eigenvalues --   -0.00271   0.00074   0.00208   0.00595   0.00664

 Mulliken charges and spin densities:
               1          2
     1  Na   1.204566   0.475066
     2  Na   0.143329   0.078214
     3  Na  -0.219534   0.060997
     4  Na  -2.055225   0.019893
     5  Na   1.560967   0.211074
     6  Na  -0.318413   0.255324
     7  Na  -0.315690  -0.100569
 Sum of Mulliken charges =  -0.00000   1.00000

 Dipole moment (field-independent basis, Debye):
    X=              2.6623    Y=              0.7017    Z=              0.4556  Tot=              2.7906
 Quadrupole moment (field-independent basis, Debye-Ang):
   XX=            -64.8148   YY=            -64.5769   ZZ=            -72.0249
   XY=              1.5626   XZ=             -1.0142   YZ=             -3.2987

 Normal termination of Gaussian 16 at Mon Nov 13 15:36:31 2023.
