 Gaussian 16, Revision B.01,
 Gaussian 16:  ES64L-G16RevB.01 20-Dec-2017

 -------------------------
 #P B3LYP/6-311+g(d) force
 -------------------------

 ------------------------------
 Gaussian input prepared by ASE
 ------------------------------
 Symbolic Z-matrix:
 Charge =  0 Multiplicity = 2

                         Standard orientation:
 ---------------------------------------------------------------------
 Center     Atomic      Atomic             Coordinates (Angstroms)
 Number     Number       Type             X           Y           Z
 ---------------------------------------------------------------------
      1         11           0       -1.109411    0.813331    1.478360
      2         11           0        0.261002    2.677466   -0.432716
      3         11           0       -5.431370   -0.698034    0.013731
      4         11           0       -2.503375   -0.809278   -0.625646
      5         11           0        0.446952   -0.291646   -0.826541
      6         11           0        2.842751   -1.437611    0.576097
      7         11           0        5.493451   -0.254228   -0.183286
 ---------------------------------------------------------------------

 SCF Done:  E(UB3LYP) =  -1136.09476730     A.U. after   22 cycles

 The electronic state is 2-A.
 Alpha  occ. eigenvalues --  -38.46038 -38.44386 -38.44266 -38.44053 -38.43755
 Alpha  occ. eigenvalues --  -38.43671 -38.43563  -2.22007  -2.20372  -2.20304
 Alpha  occ. eigenvalues --   -2.19869  -2.19639  -2.19551  -2.19487  -1.15734
 Alpha  occ. eigenvalues --   -1.15665  -1.15637  -1.14121  -1.14095  -1.14030
 Alpha  occ. eigenvalues --   -1.13955  -1.13908  -1.13855  -1.13593  -1.13508
 Alpha  occ. eigenvalues --   -1.13505  -1.13335  -1.13310  -1.13274  -1.13242
 Alpha  occ. eigenvalues --   -1.13242  -1.13170  -1.13124  -1.13121  -1.13057
 Alpha  occ. eigenvalues --   -0.18766  -0.13899  -0.12356  -0.10684
 Alpha virt. eigenvalues --   -0.07078  -0.06115  -0.03766  -0.03286  -0.02987
 Alpha virt. eigenvalues --   -0.02267  -0.02060  -0.01461  -0.01199  -0.00844
 Alpha virt. eigenvalues --   -0.00217   0.00238   0.00481   0.00536   0.00561

  Beta  occ. eigenvalues --  -38.46022 -38.44338 -38.44204 -38.44015 -38.43751
  Beta  occ. eigenvalues --  -38.43652 -38.43543  -2.21982  -2.20266  -2.20215
  Beta  occ. eigenvalues --   -2.19798  -2.19636  -2.19521  -2.19450  -1.15712
  Beta  occ. eigenvalues --   -1.15627  -1.15607  -1.14056  -1.14017  -1.13954
  Beta  occ. eigenvalues --   -1.13884  -1.13848  -1.13774  -1.13551  -1.13459
  Beta  occ. eigenvalues --   -1.13456  -1.13314  -1.13280  -1.13277  -1.13228
  Beta  occ. eigenvalues --   -1.13206  -1.13151  -1.13099  -1.13096  -1.13012
  Beta  occ. eigenvalues --   -0.18107  -0.13661  -0.11802
  Beta virt. eigenvalues --   -0.07241  -0.06870  -0.05594  -0.03516  -0.03018
  Beta virt. eigenvalues --   -0.02721  -0.01904  -0.01834  -0.01267  -0.00860
  Beta virt. eigenvalues --   -0.00532  -0.00099   0.00440   0.00610   0.00655

 Mulliken charges and spin densities:
               1          2
     1  Na  -0.017688   0.191915
     2  Na   0.321858   0.221406
     3  Na   0.364906   0.212733
     4  Na  -0.533327  -0.011606
     5  Na  -0.408144   0.298397
     6  Na  -0.083742  -0.101150
     7  Na   0.356137   0.188305
 Sum of Mulliken charges =  -0.00000   1.00000

 Dipole moment (field-independent basis, Debye):
    X=              0.1552    Y=              1.2487    Z=              0.2938  Tot=              1.2922
 Quadrupole moment (field-independent basis, Debye-Ang):
   XX=            -67.4843   YY=            -73.8918   ZZ=            -63.4842
   XY=              2.8244   XZ=             -3.7209   YZ=             -2.9159

 Normal termination of Gaussian 16 at Mon Nov 13 15:22:58 2023.
