 Gaussian 16, Revision B.01,
 Gaussian 16:  ES64L-G16RevB.01 20-Dec-2017

 -------------------------
 #P B3LYP/6-311+g(d) force
 -------------------------

 ------------------------------
 Gaussian input prepared by ASE
 ------------------------------
 Symbolic Z-matrix:
 Charge =  0 Multiplicity = 2

                         Standard orientation:
 ---------------------------------------------------------------------
 Center     Atomic      Atomic             Coordinates (Angstroms)
 Number     Number       Type             X           Y           Z
 ---------------------------------------------------------------------
      1         11           0        0.109881    0.108351   -1.512582
      2         11           0        1.629500    1.955402    0.130661
      3         11           0       -1.435765    2.148920   -0.084366
      4         11           0       -2.772342   -0.599134    0.114712
      5         11           0       -0.309792   -2.419592   -0.114643
      6         11           0        2.437568   -1.009429   -0.183745
      7         11           0        0.340952   -0.184518    1.649962
 ---------------------------------------------------------------------

 SCF Done:  E(UB3LYP) =  -1136.10732132     A.U. after   23 cycles

 The electronic state is 2-A.
 Alpha  occ. eigenvalues --  -38.43717 -38.43626 -38.43387 -38.43362 -38.43360
 Alpha  occ. eigenvalues --  -38.43279 -38.43252  -2.19708  -2.19665  -2.19567
 Alpha  occ. eigenvalues --   -2.19554  -2.19457  -2.19368  -2.19319  -1.13659
 Alpha  occ. eigenvalues --   -1.13477  -1.13447  -1.13420  -1.13377  -1.13350
 Alpha  occ. eigenvalues --   -1.13321  -1.13300  -1.13266  -1.13193  -1.13173
 Alpha  occ. eigenvalues --   -1.13104  -1.13090  -1.13034  -1.13027  -1.12985
 Alpha  occ. eigenvalues --   -1.12970  -1.12936  -1.12919  -1.12904  -1.12892
 Alpha  occ. eigenvalues --   -0.20881  -0.13676  -0.13189  -0.11275
 Alpha virt. eigenvalues --   -0.05213  -0.04736  -0.04487  -0.03212  -0.02978
 Alpha virt. eigenvalues --   -0.02221  -0.01189  -0.00807   0.00034   0.00325
 Alpha virt. eigenvalues --    0.00379   0.00466   0.00970   0.01044   0.01080

  Beta  occ. eigenvalues --  -38.43713 -38.43611 -38.43373 -38.43352 -38.43277
  Beta  occ. eigenvalues --  -38.43239 -38.43198  -2.19685  -2.19662  -2.19454
  Beta  occ. eigenvalues --   -2.19408  -2.19403  -2.19356  -2.19299  -1.13621
  Beta  occ. eigenvalues --   -1.13425  -1.13405  -1.13381  -1.13364  -1.13327
  Beta  occ. eigenvalues --   -1.13274  -1.13226  -1.13221  -1.13137  -1.13093
  Beta  occ. eigenvalues --   -1.13080  -1.13010  -1.12982  -1.12958  -1.12948
  Beta  occ. eigenvalues --   -1.12932  -1.12909  -1.12886  -1.12872  -1.12830
  Beta  occ. eigenvalues --   -0.20113  -0.13353  -0.12845
  Beta virt. eigenvalues --   -0.07160  -0.05212  -0.04720  -0.04496  -0.02330
  Beta virt. eigenvalues --   -0.02084  -0.01210  -0.01068  -0.00755   0.00159
  Beta virt. eigenvalues --    0.00313   0.00374   0.00420   0.00995   0.01041

 Mulliken charges and spin densities:
               1          2
     1  Na  -1.060991   0.417296
     2  Na   0.535659   0.017384
     3  Na   0.302211  -0.012117
     4  Na  -0.044123  -0.048588
     5  Na   0.454788   0.011993
     6  Na   0.676742   0.003283
     7  Na  -0.864286   0.610749
 Sum of Mulliken charges =  -0.00000   1.00000

 Dipole moment (field-independent basis, Debye):
    X=             -0.2455    Y=              0.0059    Z=              0.1571  Tot=              0.2915
 Quadrupole moment (field-independent basis, Debye-Ang):
   XX=            -57.8437   YY=            -63.9079   ZZ=            -73.0864
   XY=              0.0081   XZ=             -0.5770   YZ=              0.5678

 Normal termination of Gaussian 16 at Mon Nov 13 18:09:27 2023.
