 Gaussian 16, Revision B.01,
 Gaussian 16:  ES64L-G16RevB.01 20-Dec-2017

 -------------------------
 #P B3LYP/6-311+g(d) force
 -------------------------

 ------------------------------
 Gaussian input prepared by ASE
 ------------------------------
 Symbolic Z-matrix:
 Charge =  0 Multiplicity = 2

                         Standard orientation:
 ---------------------------------------------------------------------
 Center     Atomic      Atomic             Coordinates (Angstroms)
 Number     Number       Type             X           Y           Z
 ---------------------------------------------------------------------
      1         11           0        0.594806   -0.001443   -1.463879
      2         11           0       -1.267458    1.824312    0.040707
      3         11           0       -3.636049    0.002275   -0.040973
      4         11           0       -1.269733   -1.824120    0.041075
      5         11           0        2.465832    1.867977   -0.027350
      6         11           0        0.649923   -0.001021    1.477852
      7         11           0        2.462678   -1.867980   -0.027432
 ---------------------------------------------------------------------

 SCF Done:  E(UB3LYP) =  -1136.10514972     A.U. after   21 cycles

 The electronic state is 2-A.
 Alpha  occ. eigenvalues --  -38.45476 -38.43919 -38.43917 -38.43311 -38.43310
 Alpha  occ. eigenvalues --  -38.43173 -38.43050  -2.21352  -2.19850  -2.19845
 Alpha  occ. eigenvalues --   -2.19378  -2.19319  -2.19316  -2.19250  -1.15047
 Alpha  occ. eigenvalues --   -1.15032  -1.14974  -1.13632  -1.13576  -1.13538
 Alpha  occ. eigenvalues --   -1.13531  -1.13453  -1.13437  -1.13308  -1.13124
 Alpha  occ. eigenvalues --   -1.13070  -1.13038  -1.13026  -1.12915  -1.12908
 Alpha  occ. eigenvalues --   -1.12905  -1.12862  -1.12841  -1.12824  -1.12772
 Alpha  occ. eigenvalues --   -0.20127  -0.14459  -0.11970  -0.10473
 Alpha virt. eigenvalues --   -0.06864  -0.05256  -0.03457  -0.03407  -0.02364
 Alpha virt. eigenvalues --   -0.02102  -0.01707  -0.01369  -0.00147  -0.00035
 Alpha virt. eigenvalues --    0.00252   0.00266   0.00760   0.00879   0.00917

  Beta  occ. eigenvalues --  -38.45482 -38.43909 -38.43907 -38.43296 -38.43295
  Beta  occ. eigenvalues --  -38.43100 -38.42971  -2.21365  -2.19836  -2.19831
  Beta  occ. eigenvalues --   -2.19300  -2.19297  -2.19241  -2.19110  -1.15060
  Beta  occ. eigenvalues --   -1.15040  -1.14968  -1.13620  -1.13568  -1.13488
  Beta  occ. eigenvalues --   -1.13481  -1.13447  -1.13432  -1.13251  -1.13098
  Beta  occ. eigenvalues --   -1.12990  -1.12974  -1.12954  -1.12906  -1.12896
  Beta  occ. eigenvalues --   -1.12835  -1.12788  -1.12755  -1.12726  -1.12679
  Beta  occ. eigenvalues --   -0.19389  -0.14224  -0.11661
  Beta virt. eigenvalues --   -0.06748  -0.06439  -0.05270  -0.03431  -0.02660
  Beta virt. eigenvalues --   -0.02313  -0.01353  -0.01326  -0.00722  -0.00153
  Beta virt. eigenvalues --    0.00161   0.00234   0.00301   0.00788   0.00869

 Mulliken charges and spin densities:
               1          2
     1  Na  -0.799078   0.454586
     2  Na   0.377685   0.154825
     3  Na  -0.190936  -0.083257
     4  Na   0.379426   0.155250
     5  Na   0.459078  -0.028404
     6  Na  -0.687602   0.375017
     7  Na   0.461428  -0.028018
 Sum of Mulliken charges =  -0.00000   1.00000

 Dipole moment (field-independent basis, Debye):
    X=             -0.4429    Y=              0.0010    Z=              0.0164  Tot=              0.4432
 Quadrupole moment (field-independent basis, Debye-Ang):
   XX=            -43.3567   YY=            -69.7462   ZZ=            -76.6262
   XY=              0.0025   XZ=              0.1110   YZ=             -0.0014

 Normal termination of Gaussian 16 at Mon Nov 13 18:42:29 2023.
