 Gaussian 16, Revision B.01,
 Gaussian 16:  ES64L-G16RevB.01 20-Dec-2017

 -------------------------
 #P B3LYP/6-311+g(d) force
 -------------------------

 ------------------------------
 Gaussian input prepared by ASE
 ------------------------------
 Symbolic Z-matrix:
 Charge =  0 Multiplicity = 2

                         Standard orientation:
 ---------------------------------------------------------------------
 Center     Atomic      Atomic             Coordinates (Angstroms)
 Number     Number       Type             X           Y           Z
 ---------------------------------------------------------------------
      1         11           0        0.370274    0.000128   -1.243880
      2         11           0       -2.619103    0.331817   -1.231538
      3         11           0        3.313378    0.003243   -0.835854
      4         11           0        1.522624   -0.337117    1.508689
      5         11           0       -0.283972    2.486356    0.323475
      6         11           0       -1.467445   -0.001988    1.526997
      7         11           0       -0.835756   -2.482439   -0.047889
 ---------------------------------------------------------------------

 SCF Done:  E(UB3LYP) =  -1136.11134687     A.U. after   21 cycles

 The electronic state is 2-A.
 Alpha  occ. eigenvalues --  -38.44464 -38.44239 -38.43648 -38.43572 -38.43203
 Alpha  occ. eigenvalues --  -38.42577 -38.42522  -2.20362  -2.20201  -2.19729
 Alpha  occ. eigenvalues --   -2.19701  -2.19451  -2.18536  -2.18482  -1.14098
 Alpha  occ. eigenvalues --   -1.14053  -1.13949  -1.13939  -1.13909  -1.13757
 Alpha  occ. eigenvalues --   -1.13587  -1.13419  -1.13363  -1.13350  -1.13288
 Alpha  occ. eigenvalues --   -1.13257  -1.13123  -1.13095  -1.13071  -1.12248
 Alpha  occ. eigenvalues --   -1.12202  -1.12185  -1.12148  -1.12116  -1.12072
 Alpha  occ. eigenvalues --   -0.20203  -0.13704  -0.12044  -0.11815
 Alpha virt. eigenvalues --   -0.05790  -0.04325  -0.03673  -0.03368  -0.02992
 Alpha virt. eigenvalues --   -0.02596  -0.01638  -0.00589  -0.00498   0.00319
 Alpha virt. eigenvalues --    0.00535   0.00598   0.00720   0.00987   0.01027

  Beta  occ. eigenvalues --  -38.44445 -38.44201 -38.43598 -38.43509 -38.43151
  Beta  occ. eigenvalues --  -38.42567 -38.42517  -2.20327  -2.20132  -2.19627
  Beta  occ. eigenvalues --   -2.19608  -2.19361  -2.18522  -2.18476  -1.14073
  Beta  occ. eigenvalues --   -1.14018  -1.13926  -1.13893  -1.13846  -1.13711
  Beta  occ. eigenvalues --   -1.13504  -1.13343  -1.13293  -1.13273  -1.13200
  Beta  occ. eigenvalues --   -1.13186  -1.13052  -1.13035  -1.12994  -1.12240
  Beta  occ. eigenvalues --   -1.12184  -1.12166  -1.12123  -1.12105  -1.12058
  Beta  occ. eigenvalues --   -0.19386  -0.13470  -0.11541
  Beta virt. eigenvalues --   -0.07826  -0.05666  -0.03796  -0.03619  -0.03286
  Beta virt. eigenvalues --   -0.01945  -0.01808  -0.01473  -0.00482  -0.00232
  Beta virt. eigenvalues --    0.00348   0.00620   0.00681   0.00741   0.01005

 Mulliken charges and spin densities:
               1          2
     1  Na  -0.486691   0.222995
     2  Na   0.631445  -0.069762
     3  Na   0.440055   0.236081
     4  Na  -0.068633   0.029435
     5  Na  -0.470230   0.079735
     6  Na   0.349131   0.214585
     7  Na  -0.395077   0.286931
 Sum of Mulliken charges =  -0.00000   1.00000

 Dipole moment (field-independent basis, Debye):
    X=              0.1963    Y=              0.0695    Z=             -0.2292  Tot=              0.3096
 Quadrupole moment (field-independent basis, Debye-Ang):
   XX=            -54.6812   YY=            -71.7581   ZZ=            -66.3083
   XY=              0.1195   XZ=              0.5748   YZ=              0.0619

 Normal termination of Gaussian 16 at Mon Nov 13 18:36:01 2023.
