 Gaussian 16, Revision B.01,
 Gaussian 16:  ES64L-G16RevB.01 20-Dec-2017

 -------------------------
 #P B3LYP/6-311+g(d) force
 -------------------------

 ------------------------------
 Gaussian input prepared by ASE
 ------------------------------
 Symbolic Z-matrix:
 Charge =  0 Multiplicity = 2

                         Standard orientation:
 ---------------------------------------------------------------------
 Center     Atomic      Atomic             Coordinates (Angstroms)
 Number     Number       Type             X           Y           Z
 ---------------------------------------------------------------------
      1         11           0       -0.607111   -0.702374   -1.357952
      2         11           0        0.632899   -0.702869    1.365087
      3         11           0        2.303990   -1.366908   -1.033179
      4         11           0        2.835653    1.143156    0.518690
      5         11           0       -0.027764    1.902112    0.022604
      6         11           0       -2.861053    1.099858   -0.556836
      7         11           0       -2.276615   -1.372975    1.041587
 ---------------------------------------------------------------------

 SCF Done:  E(UB3LYP) =  -1136.09726653     A.U. after   20 cycles

 The electronic state is 2-A.
 Alpha  occ. eigenvalues --  -38.44478 -38.44439 -38.44110 -38.44102 -38.43576
 Alpha  occ. eigenvalues --  -38.43559 -38.42794  -2.20461  -2.20423  -2.20101
 Alpha  occ. eigenvalues --   -2.20094  -2.19763  -2.19736  -2.18850  -1.14206
 Alpha  occ. eigenvalues --   -1.14172  -1.14142  -1.14109  -1.14098  -1.14061
 Alpha  occ. eigenvalues --   -1.13859  -1.13854  -1.13767  -1.13743  -1.13688
 Alpha  occ. eigenvalues --   -1.13682  -1.13568  -1.13386  -1.13357  -1.13353
 Alpha  occ. eigenvalues --   -1.13341  -1.13274  -1.12556  -1.12493  -1.12464
 Alpha  occ. eigenvalues --   -0.20503  -0.14965  -0.11644  -0.11506
 Alpha virt. eigenvalues --   -0.06652  -0.04847  -0.04385  -0.03313  -0.02436
 Alpha virt. eigenvalues --   -0.02287  -0.02055  -0.00771  -0.00340   0.00187
 Alpha virt. eigenvalues --    0.00418   0.00514   0.00703   0.00871   0.00971

  Beta  occ. eigenvalues --  -38.44465 -38.44428 -38.44075 -38.44066 -38.43518
  Beta  occ. eigenvalues --  -38.43500 -38.42781  -2.20440  -2.20405  -2.20038
  Beta  occ. eigenvalues --   -2.20030  -2.19662  -2.19633  -2.18833  -1.14191
  Beta  occ. eigenvalues --   -1.14158  -1.14118  -1.14083  -1.14073  -1.14038
  Beta  occ. eigenvalues --   -1.13811  -1.13806  -1.13705  -1.13682  -1.13649
  Beta  occ. eigenvalues --   -1.13643  -1.13510  -1.13320  -1.13279  -1.13270
  Beta  occ. eigenvalues --   -1.13257  -1.13188  -1.12551  -1.12469  -1.12419
  Beta  occ. eigenvalues --   -0.19782  -0.14712  -0.11299
  Beta virt. eigenvalues --   -0.07424  -0.06547  -0.04834  -0.03607  -0.03103
  Beta virt. eigenvalues --   -0.02219  -0.01704  -0.01200  -0.00646  -0.00051
  Beta virt. eigenvalues --    0.00220   0.00399   0.00521   0.00791   0.00943

 Mulliken charges and spin densities:
               1          2
     1  Na  -0.130419   0.405118
     2  Na   0.031886   0.405929
     3  Na  -0.495107   0.076855
     4  Na   1.220353   0.039835
     5  Na  -1.455368  -0.054198
     6  Na   1.404970   0.057138
     7  Na  -0.576316   0.069323
 Sum of Mulliken charges =  -0.00000   1.00000

 Dipole moment (field-independent basis, Debye):
    X=             -0.0158    Y=             -0.0792    Z=             -0.0044  Tot=              0.0809
 Quadrupole moment (field-independent basis, Debye-Ang):
   XX=            -46.7679   YY=            -76.1549   ZZ=            -71.1561
   XY=              0.0388   XZ=             -0.7772   YZ=             -0.0682

 Normal termination of Gaussian 16 at Mon Nov 13 17:07:41 2023.
