 Gaussian 16, Revision B.01,
 Gaussian 16:  ES64L-G16RevB.01 20-Dec-2017

 -------------------------
 #P B3LYP/6-311+g(d) force
 -------------------------

 ------------------------------
 Gaussian input prepared by ASE
 ------------------------------
 Symbolic Z-matrix:
 Charge =  0 Multiplicity = 2

                         Standard orientation:
 ---------------------------------------------------------------------
 Center     Atomic      Atomic             Coordinates (Angstroms)
 Number     Number       Type             X           Y           Z
 ---------------------------------------------------------------------
      1         11           0       -0.804889    1.761844   -0.232257
      2         11           0       -0.985669   -0.664335    1.525928
      3         11           0       -3.438279    0.393275    0.170306
      4         11           0       -1.290536   -0.942562   -1.441135
      5         11           0        0.985756   -2.302117   -0.035508
      6         11           0        3.381919   -0.492164    0.041122
      7         11           0        2.151698    2.246058   -0.028456
 ---------------------------------------------------------------------

 SCF Done:  E(UB3LYP) =  -1136.09800015     A.U. after   26 cycles

 The electronic state is 2-A.
 Alpha  occ. eigenvalues --  -38.45558 -38.45548 -38.43779 -38.43740 -38.43669
 Alpha  occ. eigenvalues --  -38.43574 -38.43122  -2.21527  -2.21417  -2.19874
 Alpha  occ. eigenvalues --   -2.19788  -2.19670  -2.19544  -2.19091  -1.15246
 Alpha  occ. eigenvalues --   -1.15176  -1.15170  -1.15113  -1.15082  -1.15057
 Alpha  occ. eigenvalues --   -1.13718  -1.13565  -1.13529  -1.13501  -1.13489
 Alpha  occ. eigenvalues --   -1.13376  -1.13336  -1.13271  -1.13243  -1.13208
 Alpha  occ. eigenvalues --   -1.13171  -1.13166  -1.12765  -1.12733  -1.12721
 Alpha  occ. eigenvalues --   -0.19803  -0.14636  -0.12331  -0.10560
 Alpha virt. eigenvalues --   -0.07266  -0.05442  -0.04104  -0.03558  -0.02579
 Alpha virt. eigenvalues --   -0.02237  -0.01914  -0.00980  -0.00161  -0.00095
 Alpha virt. eigenvalues --   -0.00045   0.00114   0.00618   0.00689   0.00874

  Beta  occ. eigenvalues --  -38.45564 -38.45527 -38.43718 -38.43706 -38.43672
  Beta  occ. eigenvalues --  -38.43500 -38.43112  -2.21496  -2.21428  -2.19762
  Beta  occ. eigenvalues --   -2.19737  -2.19550  -2.19536  -2.19077  -1.15234
  Beta  occ. eigenvalues --   -1.15161  -1.15127  -1.15089  -1.15086  -1.15057
  Beta  occ. eigenvalues --   -1.13659  -1.13502  -1.13473  -1.13426  -1.13412
  Beta  occ. eigenvalues --   -1.13304  -1.13241  -1.13220  -1.13191  -1.13168
  Beta  occ. eigenvalues --   -1.13161  -1.13135  -1.12755  -1.12726  -1.12675
  Beta  occ. eigenvalues --   -0.19066  -0.14433  -0.12124
  Beta virt. eigenvalues --   -0.07138  -0.06453  -0.05372  -0.04071  -0.02845
  Beta virt. eigenvalues --   -0.02530  -0.01612  -0.01002  -0.00899  -0.00119
  Beta virt. eigenvalues --    0.00030   0.00143   0.00176   0.00692   0.00861

 Mulliken charges and spin densities:
               1          2
     1  Na  -0.587064   0.318044
     2  Na  -0.930961   0.319651
     3  Na   2.184518   0.195511
     4  Na  -0.793048   0.174511
     5  Na   1.033029   0.150487
     6  Na  -0.790099  -0.015842
     7  Na  -0.116375  -0.142363
 Sum of Mulliken charges =  -0.00000   1.00000

 Dipole moment (field-independent basis, Debye):
    X=             -0.1554    Y=             -0.1327    Z=             -0.0323  Tot=              0.2068
 Quadrupole moment (field-independent basis, Debye-Ang):
   XX=            -45.6245   YY=            -72.5594   ZZ=            -76.4912
   XY=             -2.3578   XZ=              0.3585   YZ=              0.3968

 Normal termination of Gaussian 16 at Mon Nov 13 16:27:19 2023.
