 Gaussian 16, Revision B.01,
 Gaussian 16:  ES64L-G16RevB.01 20-Dec-2017

 -------------------------
 #P B3LYP/6-311+g(d) force
 -------------------------

 ------------------------------
 Gaussian input prepared by ASE
 ------------------------------
 Symbolic Z-matrix:
 Charge =  0 Multiplicity = 2

                         Standard orientation:
 ---------------------------------------------------------------------
 Center     Atomic      Atomic             Coordinates (Angstroms)
 Number     Number       Type             X           Y           Z
 ---------------------------------------------------------------------
      1         11           0        0.329606    0.000189   -1.513155
      2         11           0        0.877953   -1.571284    0.806970
      3         11           0        3.075995    0.001310   -0.404274
      4         11           0        0.873666    1.572615    0.807730
      5         11           0       -1.353290   -0.002993    1.647440
      6         11           0       -1.902682    1.573807   -0.671215
      7         11           0       -1.901248   -1.573644   -0.673495
 ---------------------------------------------------------------------

 SCF Done:  E(UB3LYP) =  -1136.08525064     A.U. after   21 cycles

 The electronic state is 2-A.
 Alpha  occ. eigenvalues --  -38.44456 -38.44312 -38.44066 -38.43391 -38.43388
 Alpha  occ. eigenvalues --  -38.43041 -38.43038  -2.20532  -2.20451  -2.20384
 Alpha  occ. eigenvalues --   -2.19477  -2.19469  -2.19219  -2.19210  -1.14323
 Alpha  occ. eigenvalues --   -1.14311  -1.14249  -1.14169  -1.14147  -1.14098
 Alpha  occ. eigenvalues --   -1.14088  -1.14025  -1.13980  -1.13195  -1.13148
 Alpha  occ. eigenvalues --   -1.13129  -1.13118  -1.13102  -1.13001  -1.12981
 Alpha  occ. eigenvalues --   -1.12885  -1.12865  -1.12857  -1.12786  -1.12723
 Alpha  occ. eigenvalues --   -0.21431  -0.14348  -0.12527  -0.11938
 Alpha virt. eigenvalues --   -0.05778  -0.04095  -0.04039  -0.03528  -0.02794
 Alpha virt. eigenvalues --   -0.02697  -0.01480  -0.00386  -0.00318   0.00298
 Alpha virt. eigenvalues --    0.00658   0.00884   0.00939   0.01045   0.01074

  Beta  occ. eigenvalues --  -38.44450 -38.44235 -38.43991 -38.43370 -38.43367
  Beta  occ. eigenvalues --  -38.43009 -38.43006  -2.20441  -2.20395  -2.20252
  Beta  occ. eigenvalues --   -2.19444  -2.19436  -2.19168  -2.19158  -1.14267
  Beta  occ. eigenvalues --   -1.14236  -1.14136  -1.14100  -1.14084  -1.14065
  Beta  occ. eigenvalues --   -1.14039  -1.13939  -1.13904  -1.13169  -1.13127
  Beta  occ. eigenvalues --   -1.13092  -1.13067  -1.13054  -1.12971  -1.12943
  Beta  occ. eigenvalues --   -1.12858  -1.12783  -1.12777  -1.12754  -1.12684
  Beta  occ. eigenvalues --   -0.20592  -0.14084  -0.11676
  Beta virt. eigenvalues --   -0.08112  -0.05697  -0.04051  -0.03374  -0.03169
  Beta virt. eigenvalues --   -0.02018  -0.01724  -0.01397  -0.00375  -0.00055
  Beta virt. eigenvalues --    0.00332   0.00712   0.00867   0.01045   0.01062

 Mulliken charges and spin densities:
               1          2
     1  Na   0.000758   0.430937
     2  Na  -0.658828   0.161966
     3  Na   0.872694  -0.017148
     4  Na  -0.656578   0.162106
     5  Na   0.824551   0.330832
     6  Na  -0.190857  -0.034366
     7  Na  -0.191741  -0.034328
 Sum of Mulliken charges =  -0.00000   1.00000

 Dipole moment (field-independent basis, Debye):
    X=              0.3333    Y=              0.0007    Z=             -0.1061  Tot=              0.3498
 Quadrupole moment (field-independent basis, Debye-Ang):
   XX=            -54.3036   YY=            -74.6468   ZZ=            -66.5208
   XY=              0.0025   XZ=              0.2778   YZ=             -0.0012

 Normal termination of Gaussian 16 at Mon Nov 13 20:04:30 2023.
