 Gaussian 16, Revision B.01,
 Gaussian 16:  ES64L-G16RevB.01 20-Dec-2017

 -------------------------
 #P B3LYP/6-311+g(d) force
 -------------------------

 ------------------------------
 Gaussian input prepared by ASE
 ------------------------------
 Symbolic Z-matrix:
 Charge =  0 Multiplicity = 2

                         Standard orientation:
 ---------------------------------------------------------------------
 Center     Atomic      Atomic             Coordinates (Angstroms)
 Number     Number       Type             X           Y           Z
 ---------------------------------------------------------------------
      1         11           0        0.204376    0.225960   -0.793479
      2         11           0        2.289082   -1.823225   -1.476929
      3         11           0        2.164412    2.468265   -0.408723
      4         11           0        2.568360   -0.150725    1.000936
      5         11           0       -0.209907   -0.390739    2.111639
      6         11           0       -2.349785   -1.056527    0.119747
      7         11           0       -4.666538    0.726990   -0.553191
 ---------------------------------------------------------------------

 SCF Done:  E(UB3LYP) =  -1136.08711195     A.U. after   46 cycles

 The electronic state is 2-A.
 Alpha  occ. eigenvalues --  -38.45393 -38.44644 -38.44529 -38.44383 -38.43631
 Alpha  occ. eigenvalues --  -38.43618 -38.43316  -2.21307  -2.20609  -2.20544
 Alpha  occ. eigenvalues --   -2.20465  -2.19620  -2.19601  -2.19221  -1.15023
 Alpha  occ. eigenvalues --   -1.14974  -1.14859  -1.14436  -1.14311  -1.14266
 Alpha  occ. eigenvalues --   -1.14241  -1.14192  -1.14155  -1.14122  -1.14095
 Alpha  occ. eigenvalues --   -1.14083  -1.13418  -1.13304  -1.13282  -1.13223
 Alpha  occ. eigenvalues --   -1.13177  -1.13148  -1.12916  -1.12879  -1.12826
 Alpha  occ. eigenvalues --   -0.19435  -0.14490  -0.12138  -0.11021
 Alpha virt. eigenvalues --   -0.07342  -0.04676  -0.04204  -0.03382  -0.02901
 Alpha virt. eigenvalues --   -0.02377  -0.02165  -0.01284  -0.00798  -0.00186
 Alpha virt. eigenvalues --   -0.00047   0.00052   0.00296   0.00687   0.00847

  Beta  occ. eigenvalues --  -38.45283 -38.44582 -38.44520 -38.44376 -38.43623
  Beta  occ. eigenvalues --  -38.43571 -38.43311  -2.21103  -2.20601  -2.20539
  Beta  occ. eigenvalues --   -2.20348  -2.19602  -2.19527  -2.19213  -1.14892
  Beta  occ. eigenvalues --   -1.14837  -1.14720  -1.14430  -1.14262  -1.14225
  Beta  occ. eigenvalues --   -1.14207  -1.14174  -1.14139  -1.14079  -1.14014
  Beta  occ. eigenvalues --   -1.14005  -1.13366  -1.13296  -1.13226  -1.13210
  Beta  occ. eigenvalues --   -1.13139  -1.13084  -1.12914  -1.12871  -1.12812
  Beta  occ. eigenvalues --   -0.18730  -0.13879  -0.11008
  Beta virt. eigenvalues --   -0.08073  -0.07112  -0.04392  -0.03557  -0.02948
  Beta virt. eigenvalues --   -0.02740  -0.02010  -0.01752  -0.00996  -0.00464
  Beta virt. eigenvalues --   -0.00108   0.00111   0.00254   0.00346   0.00729

 Mulliken charges and spin densities:
               1          2
     1  Na  -2.802682   0.121717
     2  Na   0.916088   0.235468
     3  Na   0.101937   0.174103
     4  Na   0.631132   0.068115
     5  Na  -0.209840   0.182010
     6  Na   1.808797  -0.097512
     7  Na  -0.445432   0.316099
 Sum of Mulliken charges =  -0.00000   1.00000

 Dipole moment (field-independent basis, Debye):
    X=              0.3970    Y=             -0.3646    Z=              0.3177  Tot=              0.6257
 Quadrupole moment (field-independent basis, Debye-Ang):
   XX=            -59.2864   YY=            -69.3098   ZZ=            -69.2909
   XY=             -4.6897   XZ=              0.4828   YZ=              3.5401

 Normal termination of Gaussian 16 at Mon Nov 13 15:15:21 2023.
