 Gaussian 16, Revision B.01,
 Gaussian 16:  ES64L-G16RevB.01 20-Dec-2017

 -------------------------
 #P B3LYP/6-311+g(d) force
 -------------------------

 ------------------------------
 Gaussian input prepared by ASE
 ------------------------------
 Symbolic Z-matrix:
 Charge =  0 Multiplicity = 2

                         Standard orientation:
 ---------------------------------------------------------------------
 Center     Atomic      Atomic             Coordinates (Angstroms)
 Number     Number       Type             X           Y           Z
 ---------------------------------------------------------------------
      1         11           0       -1.235252    2.254272   -0.720091
      2         11           0       -0.658821   -2.281667   -0.417738
      3         11           0       -5.139188   -0.380465   -0.156636
      4         11           0       -2.311029   -0.095518    0.805837
      5         11           0        0.648540    0.262269    0.488734
      6         11           0        3.453095    1.301323    0.236806
      7         11           0        5.242654   -1.060213   -0.236913
 ---------------------------------------------------------------------

 SCF Done:  E(UB3LYP) =  -1136.09436721     A.U. after   24 cycles

 The electronic state is 2-A.
 Alpha  occ. eigenvalues --  -38.45792 -38.44796 -38.44094 -38.43967 -38.43576
 Alpha  occ. eigenvalues --  -38.43545 -38.43420  -2.21706  -2.20705  -2.19979
 Alpha  occ. eigenvalues --   -2.19766  -2.19671  -2.19631  -2.19242  -1.15400
 Alpha  occ. eigenvalues --   -1.15316  -1.15300  -1.14425  -1.14339  -1.14312
 Alpha  occ. eigenvalues --   -1.13736  -1.13677  -1.13617  -1.13474  -1.13417
 Alpha  occ. eigenvalues --   -1.13413  -1.13376  -1.13353  -1.13330  -1.13289
 Alpha  occ. eigenvalues --   -1.13255  -1.13200  -1.12894  -1.12879  -1.12863
 Alpha  occ. eigenvalues --   -0.18606  -0.14101  -0.12211  -0.11196
 Alpha virt. eigenvalues --   -0.06239  -0.05755  -0.04157  -0.03780  -0.02796
 Alpha virt. eigenvalues --   -0.02447  -0.01799  -0.01502  -0.00850  -0.00472
 Alpha virt. eigenvalues --   -0.00168  -0.00087   0.00468   0.00537   0.00717

  Beta  occ. eigenvalues --  -38.45674 -38.44738 -38.44087 -38.43973 -38.43558
  Beta  occ. eigenvalues --  -38.43526 -38.43391  -2.21490  -2.20599  -2.19964
  Beta  occ. eigenvalues --   -2.19778  -2.19648  -2.19605  -2.19189  -1.15247
  Beta  occ. eigenvalues --   -1.15171  -1.15150  -1.14358  -1.14263  -1.14236
  Beta  occ. eigenvalues --   -1.13727  -1.13671  -1.13606  -1.13443  -1.13425
  Beta  occ. eigenvalues --   -1.13419  -1.13378  -1.13326  -1.13283  -1.13258
  Beta  occ. eigenvalues --   -1.13203  -1.13175  -1.12857  -1.12842  -1.12830
  Beta  occ. eigenvalues --   -0.17724  -0.13904  -0.10933
  Beta virt. eigenvalues --   -0.08188  -0.06036  -0.05464  -0.03785  -0.03094
  Beta virt. eigenvalues --   -0.02638  -0.02134  -0.01357  -0.01160  -0.00694
  Beta virt. eigenvalues --   -0.00370  -0.00043   0.00134   0.00537   0.00600

 Mulliken charges and spin densities:
               1          2
     1  Na   0.062917   0.480921
     2  Na   0.401833   0.457459
     3  Na   0.235592   0.189924
     4  Na  -0.305172  -0.076414
     5  Na  -0.923066  -0.115798
     6  Na   0.580155   0.117876
     7  Na  -0.052259  -0.053968
 Sum of Mulliken charges =  -0.00000   1.00000

 Dipole moment (field-independent basis, Debye):
    X=              0.3795    Y=             -0.2100    Z=             -1.1003  Tot=              1.1827
 Quadrupole moment (field-independent basis, Debye-Ang):
   XX=            -73.3584   YY=            -62.9025   ZZ=            -68.8520
   XY=             -5.7646   XZ=              2.0615   YZ=              0.9308

 Normal termination of Gaussian 16 at Mon Nov 13 16:09:52 2023.
