 Gaussian 16, Revision B.01,
 Gaussian 16:  ES64L-G16RevB.01 20-Dec-2017

 -------------------------
 #P B3LYP/6-311+g(d) force
 -------------------------

 ------------------------------
 Gaussian input prepared by ASE
 ------------------------------
 Symbolic Z-matrix:
 Charge =  0 Multiplicity = 2

                         Standard orientation:
 ---------------------------------------------------------------------
 Center     Atomic      Atomic             Coordinates (Angstroms)
 Number     Number       Type             X           Y           Z
 ---------------------------------------------------------------------
      1         11           0        0.103321   -0.008804    1.071257
      2         11           0       -1.445971   -1.447919   -1.052236
      3         11           0       -2.889578   -0.115001    1.210491
      4         11           0       -1.544788    1.547718   -0.890826
      5         11           0        1.338466    2.264180   -0.450439
      6         11           0        3.056375    0.018899    0.560221
      7         11           0        1.382175   -2.259073   -0.448468
 ---------------------------------------------------------------------

 SCF Done:  E(UB3LYP) =  -1136.10132277     A.U. after   23 cycles

 The electronic state is 2-A.
 Alpha  occ. eigenvalues --  -38.44533 -38.44417 -38.43583 -38.43571 -38.43437
 Alpha  occ. eigenvalues --  -38.43373 -38.43333  -2.20507  -2.20418  -2.19723
 Alpha  occ. eigenvalues --   -2.19659  -2.19642  -2.19343  -2.19303  -1.14245
 Alpha  occ. eigenvalues --   -1.14166  -1.14160  -1.14144  -1.14062  -1.14046
 Alpha  occ. eigenvalues --   -1.13594  -1.13488  -1.13423  -1.13387  -1.13314
 Alpha  occ. eigenvalues --   -1.13296  -1.13245  -1.13235  -1.13185  -1.12996
 Alpha  occ. eigenvalues --   -1.12974  -1.12961  -1.12947  -1.12939  -1.12907
 Alpha  occ. eigenvalues --   -0.20179  -0.14631  -0.12511  -0.10921
 Alpha virt. eigenvalues --   -0.06133  -0.05044  -0.04407  -0.03616  -0.02560
 Alpha virt. eigenvalues --   -0.02026  -0.01715  -0.00657  -0.00238   0.00234
 Alpha virt. eigenvalues --    0.00317   0.00364   0.00716   0.00824   0.01018

  Beta  occ. eigenvalues --  -38.44520 -38.44361 -38.43548 -38.43530 -38.43397
  Beta  occ. eigenvalues --  -38.43362 -38.43323  -2.20484  -2.20316  -2.19657
  Beta  occ. eigenvalues --   -2.19598  -2.19574  -2.19327  -2.19289  -1.14225
  Beta  occ. eigenvalues --   -1.14157  -1.14120  -1.14098  -1.13977  -1.13974
  Beta  occ. eigenvalues --   -1.13540  -1.13456  -1.13373  -1.13331  -1.13248
  Beta  occ. eigenvalues --   -1.13230  -1.13196  -1.13171  -1.13127  -1.12983
  Beta  occ. eigenvalues --   -1.12958  -1.12947  -1.12924  -1.12915  -1.12877
  Beta  occ. eigenvalues --   -0.19479  -0.14369  -0.12205
  Beta virt. eigenvalues --   -0.06976  -0.05960  -0.05023  -0.04005  -0.03102
  Beta virt. eigenvalues --   -0.01952  -0.01811  -0.00889  -0.00593   0.00075
  Beta virt. eigenvalues --    0.00271   0.00329   0.00393   0.00841   0.00855

 Mulliken charges and spin densities:
               1          2
     1  Na  -2.240157   0.321721
     2  Na  -0.029900   0.285436
     3  Na   0.996747  -0.003025
     4  Na  -0.026779   0.220932
     5  Na  -0.328407   0.115422
     6  Na   1.991754  -0.037553
     7  Na  -0.363259   0.097067
 Sum of Mulliken charges =  -0.00000   1.00000

 Dipole moment (field-independent basis, Debye):
    X=              0.1031    Y=             -0.0239    Z=             -0.2209  Tot=              0.2450
 Quadrupole moment (field-independent basis, Debye-Ang):
   XX=            -51.8795   YY=            -70.2909   ZZ=            -72.5680
   XY=              0.0249   XZ=             -0.2656   YZ=             -0.1905

 Normal termination of Gaussian 16 at Mon Nov 13 16:51:04 2023.
