 Gaussian 16, Revision B.01,
 Gaussian 16:  ES64L-G16RevB.01 20-Dec-2017

 -------------------------
 #P B3LYP/6-311+g(d) force
 -------------------------

 ------------------------------
 Gaussian input prepared by ASE
 ------------------------------
 Symbolic Z-matrix:
 Charge =  0 Multiplicity = 2

                         Standard orientation:
 ---------------------------------------------------------------------
 Center     Atomic      Atomic             Coordinates (Angstroms)
 Number     Number       Type             X           Y           Z
 ---------------------------------------------------------------------
      1         11           0       -0.879924   -0.846479   -0.844384
      2         11           0        2.221430    1.904243   -0.706353
      3         11           0        2.060586   -1.006801   -1.438219
      4         11           0        2.324617   -1.433121    1.525097
      5         11           0        0.328917    0.809493    1.353132
      6         11           0       -2.299463    1.589789    0.147774
      7         11           0       -3.756163   -1.017124   -0.037048
 ---------------------------------------------------------------------

 SCF Done:  E(UB3LYP) =  -1136.09816545     A.U. after   27 cycles

 The electronic state is 2-A.
 Alpha  occ. eigenvalues --  -38.45106 -38.44340 -38.44251 -38.44144 -38.44114
 Alpha  occ. eigenvalues --  -38.43545 -38.42976  -2.20986  -2.20255  -2.20186
 Alpha  occ. eigenvalues --   -2.20180  -2.20120  -2.19559  -2.19077  -1.14710
 Alpha  occ. eigenvalues --   -1.14663  -1.14615  -1.14001  -1.13967  -1.13924
 Alpha  occ. eigenvalues --   -1.13892  -1.13875  -1.13863  -1.13850  -1.13833
 Alpha  occ. eigenvalues --   -1.13793  -1.13786  -1.13725  -1.13693  -1.13227
 Alpha  occ. eigenvalues --   -1.13181  -1.13165  -1.12773  -1.12712  -1.12680
 Alpha  occ. eigenvalues --   -0.19606  -0.15049  -0.11494  -0.11059
 Alpha virt. eigenvalues --   -0.06992  -0.05295  -0.04143  -0.03166  -0.02707
 Alpha virt. eigenvalues --   -0.02345  -0.02215  -0.01219  -0.00456   0.00025
 Alpha virt. eigenvalues --    0.00132   0.00368   0.00531   0.00668   0.00801

  Beta  occ. eigenvalues --  -38.45121 -38.44290 -38.44180 -38.44146 -38.44090
  Beta  occ. eigenvalues --  -38.43501 -38.42935  -2.21015  -2.20165  -2.20142
  Beta  occ. eigenvalues --   -2.20119  -2.20057  -2.19484  -2.19006  -1.14727
  Beta  occ. eigenvalues --   -1.14683  -1.14632  -1.13985  -1.13911  -1.13860
  Beta  occ. eigenvalues --   -1.13839  -1.13807  -1.13796  -1.13784  -1.13777
  Beta  occ. eigenvalues --   -1.13756  -1.13727  -1.13696  -1.13681  -1.13175
  Beta  occ. eigenvalues --   -1.13134  -1.13078  -1.12722  -1.12671  -1.12596
  Beta  occ. eigenvalues --   -0.18938  -0.14835  -0.10922
  Beta virt. eigenvalues --   -0.07245  -0.06754  -0.05264  -0.03635  -0.02957
  Beta virt. eigenvalues --   -0.02533  -0.01707  -0.01296  -0.01080  -0.00119
  Beta virt. eigenvalues --    0.00034   0.00184   0.00400   0.00658   0.00729

 Mulliken charges and spin densities:
               1          2
     1  Na  -1.944971   0.331641
     2  Na   0.001029   0.195806
     3  Na   0.345093   0.119297
     4  Na   0.218774   0.047678
     5  Na  -0.342891   0.333886
     6  Na   0.400051  -0.025695
     7  Na   1.322914  -0.002613
 Sum of Mulliken charges =  -0.00000   1.00000

 Dipole moment (field-independent basis, Debye):
    X=             -0.8997    Y=              0.1773    Z=              0.1935  Tot=              0.9372
 Quadrupole moment (field-independent basis, Debye-Ang):
   XX=            -47.5264   YY=            -74.2270   ZZ=            -71.8481
   XY=              1.0639   XZ=             -1.1153   YZ=             -4.0883

 Normal termination of Gaussian 16 at Mon Nov 13 15:56:21 2023.
