 Gaussian 16, Revision B.01,
 Gaussian 16:  ES64L-G16RevB.01 20-Dec-2017

 -------------------------
 #P B3LYP/6-311+g(d) force
 -------------------------

 ------------------------------
 Gaussian input prepared by ASE
 ------------------------------
 Symbolic Z-matrix:
 Charge =  0 Multiplicity = 2

                         Standard orientation:
 ---------------------------------------------------------------------
 Center     Atomic      Atomic             Coordinates (Angstroms)
 Number     Number       Type             X           Y           Z
 ---------------------------------------------------------------------
      1         11           0       -0.692693    0.239737   -1.458645
      2         11           0        0.455915   -1.997804    0.175475
      3         11           0        4.485475    0.204342   -0.222760
      4         11           0        1.604269    0.756862    0.407023
      5         11           0       -2.500538   -1.840736   -0.266984
      6         11           0       -1.135565    0.176153    1.494688
      7         11           0       -2.216862    2.461446   -0.128797
 ---------------------------------------------------------------------

 SCF Done:  E(UB3LYP) =  -1136.09389585     A.U. after   25 cycles

 The electronic state is 2-A.
 Alpha  occ. eigenvalues --  -38.45443 -38.44161 -38.44035 -38.43442 -38.43411
 Alpha  occ. eigenvalues --  -38.43273 -38.43206  -2.21236  -2.20211  -2.20149
 Alpha  occ. eigenvalues --   -2.19510  -2.19484  -2.19476  -2.19116  -1.14929
 Alpha  occ. eigenvalues --   -1.14877  -1.14864  -1.14041  -1.13972  -1.13856
 Alpha  occ. eigenvalues --   -1.13835  -1.13773  -1.13710  -1.13418  -1.13225
 Alpha  occ. eigenvalues --   -1.13208  -1.13145  -1.13138  -1.13116  -1.13041
 Alpha  occ. eigenvalues --   -1.13022  -1.12991  -1.12784  -1.12756  -1.12719
 Alpha  occ. eigenvalues --   -0.20174  -0.13812  -0.12216  -0.10807
 Alpha virt. eigenvalues --   -0.07530  -0.04421  -0.03631  -0.03133  -0.02643
 Alpha virt. eigenvalues --   -0.02341  -0.01919  -0.01308  -0.00572  -0.00182
 Alpha virt. eigenvalues --    0.00095   0.00333   0.00560   0.00750   0.00886

  Beta  occ. eigenvalues --  -38.45431 -38.44143 -38.43979 -38.43415 -38.43390
  Beta  occ. eigenvalues --  -38.43200 -38.43196  -2.21213  -2.20126  -2.20106
  Beta  occ. eigenvalues --   -2.19468  -2.19446  -2.19348  -2.19108  -1.14916
  Beta  occ. eigenvalues --   -1.14859  -1.14848  -1.13994  -1.13895  -1.13796
  Beta  occ. eigenvalues --   -1.13788  -1.13745  -1.13655  -1.13357  -1.13172
  Beta  occ. eigenvalues --   -1.13164  -1.13098  -1.13074  -1.13036  -1.12977
  Beta  occ. eigenvalues --   -1.12955  -1.12942  -1.12766  -1.12738  -1.12699
  Beta  occ. eigenvalues --   -0.19386  -0.13548  -0.11955
  Beta virt. eigenvalues --   -0.07319  -0.06702  -0.04395  -0.03578  -0.02701
  Beta virt. eigenvalues --   -0.02459  -0.01673  -0.01275  -0.00949  -0.00294
  Beta virt. eigenvalues --   -0.00033   0.00145   0.00385   0.00742   0.00800

 Mulliken charges and spin densities:
               1          2
     1  Na  -0.968323   0.547134
     2  Na   0.312431   0.090179
     3  Na   0.417000   0.077407
     4  Na  -0.418909   0.116471
     5  Na   0.694253   0.149508
     6  Na  -0.220500   0.067250
     7  Na   0.184049  -0.047948
 Sum of Mulliken charges =  -0.00000   1.00000

 Dipole moment (field-independent basis, Debye):
    X=              0.5340    Y=             -0.3234    Z=              0.1787  Tot=              0.6493
 Quadrupole moment (field-independent basis, Debye-Ang):
   XX=            -46.9554   YY=            -69.5253   ZZ=            -73.5158
   XY=             -0.3924   XZ=             -2.4059   YZ=             -0.3667

 Normal termination of Gaussian 16 at Mon Nov 13 19:11:00 2023.
