 Gaussian 16, Revision B.01,
 Gaussian 16:  ES64L-G16RevB.01 20-Dec-2017

 -------------------------
 #P B3LYP/6-311+g(d) force
 -------------------------

 ------------------------------
 Gaussian input prepared by ASE
 ------------------------------
 Symbolic Z-matrix:
 Charge =  0 Multiplicity = 2

                         Standard orientation:
 ---------------------------------------------------------------------
 Center     Atomic      Atomic             Coordinates (Angstroms)
 Number     Number       Type             X           Y           Z
 ---------------------------------------------------------------------
      1         11           0       -0.663537   -1.559466   -0.071262
      2         11           0       -0.616553   -0.292183    2.647892
      3         11           0       -2.938159   -0.177377   -1.461083
      4         11           0       -1.007944    1.404461    0.203033
      5         11           0        1.486917    2.632073   -0.926672
      6         11           0        1.660856    0.147715    0.743677
      7         11           0        2.078420   -2.155223   -1.135586
 ---------------------------------------------------------------------

 SCF Done:  E(UB3LYP) =  -1136.09841770     A.U. after   22 cycles

 The electronic state is 2-A.
 Alpha  occ. eigenvalues --  -38.45777 -38.44322 -38.43664 -38.43353 -38.42986
 Alpha  occ. eigenvalues --  -38.42865 -38.42842  -2.21767  -2.20219  -2.19559
 Alpha  occ. eigenvalues --   -2.19250  -2.19158  -2.19031  -2.19002  -1.15484
 Alpha  occ. eigenvalues --   -1.15364  -1.15354  -1.13933  -1.13875  -1.13817
 Alpha  occ. eigenvalues --   -1.13305  -1.13231  -1.13168  -1.13061  -1.13020
 Alpha  occ. eigenvalues --   -1.12941  -1.12869  -1.12816  -1.12765  -1.12748
 Alpha  occ. eigenvalues --   -1.12715  -1.12665  -1.12599  -1.12575  -1.12514
 Alpha  occ. eigenvalues --   -0.19997  -0.12981  -0.12670  -0.12243
 Alpha virt. eigenvalues --   -0.05067  -0.04545  -0.04497  -0.03307  -0.03105
 Alpha virt. eigenvalues --   -0.03017  -0.00918  -0.00893  -0.00564   0.00307
 Alpha virt. eigenvalues --    0.00636   0.00709   0.00779   0.00790   0.00944

  Beta  occ. eigenvalues --  -38.45649 -38.44281 -38.43643 -38.43342 -38.42966
  Beta  occ. eigenvalues --  -38.42847 -38.42825  -2.21535  -2.20143  -2.19521
  Beta  occ. eigenvalues --   -2.19228  -2.19130  -2.19007  -2.18980  -1.15320
  Beta  occ. eigenvalues --   -1.15202  -1.15196  -1.13880  -1.13823  -1.13765
  Beta  occ. eigenvalues --   -1.13280  -1.13203  -1.13140  -1.13051  -1.12996
  Beta  occ. eigenvalues --   -1.12922  -1.12848  -1.12763  -1.12748  -1.12707
  Beta  occ. eigenvalues --   -1.12633  -1.12595  -1.12592  -1.12568  -1.12512
  Beta  occ. eigenvalues --   -0.19078  -0.12624  -0.12006
  Beta virt. eigenvalues --   -0.08674  -0.04640  -0.04262  -0.04126  -0.02899
  Beta virt. eigenvalues --   -0.02543  -0.02330  -0.00775  -0.00519  -0.00467
  Beta virt. eigenvalues --    0.00386   0.00707   0.00785   0.00844   0.00885

 Mulliken charges and spin densities:
               1          2
     1  Na  -0.929620   0.407516
     2  Na   0.880888   0.112280
     3  Na   0.220445  -0.040299
     4  Na  -0.552424   0.362733
     5  Na  -0.015061  -0.095640
     6  Na   0.259237   0.340864
     7  Na   0.136534  -0.087454
 Sum of Mulliken charges =  -0.00000   1.00000

 Dipole moment (field-independent basis, Debye):
    X=             -0.3883    Y=             -0.1551    Z=             -0.1179  Tot=              0.4344
 Quadrupole moment (field-independent basis, Debye-Ang):
   XX=            -63.7696   YY=            -71.1116   ZZ=            -58.7549
   XY=              0.0235   XZ=             -0.9283   YZ=             -0.6340

 Normal termination of Gaussian 16 at Mon Nov 13 19:29:34 2023.
