 Gaussian 16, Revision B.01,
 Gaussian 16:  ES64L-G16RevB.01 20-Dec-2017

 -------------------------
 #P B3LYP/6-311+g(d) force
 -------------------------

 ------------------------------
 Gaussian input prepared by ASE
 ------------------------------
 Symbolic Z-matrix:
 Charge =  0 Multiplicity = 2

                         Standard orientation:
 ---------------------------------------------------------------------
 Center     Atomic      Atomic             Coordinates (Angstroms)
 Number     Number       Type             X           Y           Z
 ---------------------------------------------------------------------
      1         11           0        0.314739   -0.397383   -1.497582
      2         11           0        1.049557    1.676077    0.567912
      3         11           0       -1.593175    1.549810   -1.001915
      4         11           0       -2.019153   -1.487726   -0.540138
      5         11           0        2.956204   -0.275967   -0.355156
      6         11           0        0.685170   -1.364785    1.047466
      7         11           0       -1.393343    0.299975    1.779414
 ---------------------------------------------------------------------

 SCF Done:  E(UB3LYP) =  -1136.08127823     A.U. after   23 cycles

 The electronic state is 2-A.
 Alpha  occ. eigenvalues --  -38.44498 -38.44350 -38.44347 -38.43503 -38.43451
 Alpha  occ. eigenvalues --  -38.43450 -38.42766  -2.20704  -2.20634  -2.20377
 Alpha  occ. eigenvalues --   -2.19737  -2.19543  -2.19531  -2.18915  -1.14573
 Alpha  occ. eigenvalues --   -1.14527  -1.14450  -1.14344  -1.14272  -1.14225
 Alpha  occ. eigenvalues --   -1.14095  -1.14004  -1.13991  -1.13410  -1.13360
 Alpha  occ. eigenvalues --   -1.13301  -1.13275  -1.13225  -1.13184  -1.13156
 Alpha  occ. eigenvalues --   -1.13134  -1.13045  -1.12625  -1.12563  -1.12504
 Alpha  occ. eigenvalues --   -0.21496  -0.14227  -0.12897  -0.11894
 Alpha virt. eigenvalues --   -0.05534  -0.04215  -0.03924  -0.03764  -0.02951
 Alpha virt. eigenvalues --   -0.02806  -0.01294  -0.00375  -0.00318   0.00300
 Alpha virt. eigenvalues --    0.00754   0.00916   0.00990   0.01064   0.01080

  Beta  occ. eigenvalues --  -38.44417 -38.44342 -38.44274 -38.43459 -38.43431
  Beta  occ. eigenvalues --  -38.43418 -38.42746  -2.20570  -2.20490  -2.20369
  Beta  occ. eigenvalues --   -2.19664  -2.19507  -2.19483  -2.18884  -1.14474
  Beta  occ. eigenvalues --   -1.14448  -1.14338  -1.14250  -1.14172  -1.14123
  Beta  occ. eigenvalues --   -1.14077  -1.14000  -1.13958  -1.13367  -1.13273
  Beta  occ. eigenvalues --   -1.13253  -1.13231  -1.13185  -1.13144  -1.13098
  Beta  occ. eigenvalues --   -1.13094  -1.13014  -1.12610  -1.12508  -1.12471
  Beta  occ. eigenvalues --   -0.20650  -0.13960  -0.11647
  Beta virt. eigenvalues --   -0.08444  -0.05458  -0.03934  -0.03440  -0.03224
  Beta virt. eigenvalues --   -0.02178  -0.01994  -0.01231  -0.00319  -0.00093
  Beta virt. eigenvalues --    0.00337   0.00809   0.00956   0.01075   0.01117

 Mulliken charges and spin densities:
               1          2
     1  Na  -0.057801   0.406366
     2  Na  -0.722594   0.156469
     3  Na  -0.005218   0.009734
     4  Na  -0.199822  -0.104770
     5  Na   0.915346  -0.055827
     6  Na  -0.523849   0.331035
     7  Na   0.593938   0.256994
 Sum of Mulliken charges =  -0.00000   1.00000

 Dipole moment (field-independent basis, Debye):
    X=              0.0439    Y=              0.1767    Z=              0.1067  Tot=              0.2110
 Quadrupole moment (field-independent basis, Debye-Ang):
   XX=            -56.2345   YY=            -75.3292   ZZ=            -64.7825
   XY=              0.0598   XZ=             -0.2094   YZ=              0.1320

 Normal termination of Gaussian 16 at Mon Nov 13 19:04:09 2023.
