 Gaussian 16, Revision B.01,
 Gaussian 16:  ES64L-G16RevB.01 20-Dec-2017

 -------------------------
 #P B3LYP/6-311+g(d) force
 -------------------------

 ------------------------------
 Gaussian input prepared by ASE
 ------------------------------
 Symbolic Z-matrix:
 Charge =  0 Multiplicity = 2

                         Standard orientation:
 ---------------------------------------------------------------------
 Center     Atomic      Atomic             Coordinates (Angstroms)
 Number     Number       Type             X           Y           Z
 ---------------------------------------------------------------------
      1         11           0       -0.748476    1.434942   -0.461835
      2         11           0       -0.903304   -0.811229    1.523724
      3         11           0       -3.405284    0.580929    0.635512
      4         11           0       -1.922501   -1.205110   -1.266654
      5         11           0        1.026541   -0.958807   -0.771018
      6         11           0        2.228702    1.728886   -0.189806
      7         11           0        3.724322   -0.769611    0.530076
 ---------------------------------------------------------------------

 SCF Done:  E(UB3LYP) =  -1136.08400061     A.U. after   41 cycles

 The electronic state is 2-A.
 Alpha  occ. eigenvalues --  -38.45217 -38.45173 -38.44936 -38.44180 -38.43489
 Alpha  occ. eigenvalues --  -38.42986 -38.42603  -2.21230  -2.21108  -2.20934
 Alpha  occ. eigenvalues --   -2.20267  -2.19470  -2.19173  -2.18764  -1.15003
 Alpha  occ. eigenvalues --   -1.14934  -1.14829  -1.14811  -1.14758  -1.14724
 Alpha  occ. eigenvalues --   -1.14624  -1.14560  -1.14529  -1.14001  -1.13908
 Alpha  occ. eigenvalues --   -1.13863  -1.13243  -1.13135  -1.13094  -1.12937
 Alpha  occ. eigenvalues --   -1.12814  -1.12747  -1.12453  -1.12396  -1.12375
 Alpha  occ. eigenvalues --   -0.20423  -0.15500  -0.11452  -0.10894
 Alpha virt. eigenvalues --   -0.07658  -0.05003  -0.04368  -0.03194  -0.02870
 Alpha virt. eigenvalues --   -0.01893  -0.01759  -0.00995  -0.00842  -0.00089
 Alpha virt. eigenvalues --    0.00141   0.00334   0.00438   0.00757   0.00885

  Beta  occ. eigenvalues --  -38.45186 -38.45131 -38.44884 -38.44142 -38.43482
  Beta  occ. eigenvalues --  -38.42938 -38.42574  -2.21157  -2.21051  -2.20839
  Beta  occ. eigenvalues --   -2.20209  -2.19461  -2.19097  -2.18718  -1.14952
  Beta  occ. eigenvalues --   -1.14859  -1.14779  -1.14776  -1.14717  -1.14682
  Beta  occ. eigenvalues --   -1.14567  -1.14497  -1.14449  -1.13940  -1.13853
  Beta  occ. eigenvalues --   -1.13804  -1.13229  -1.13126  -1.13076  -1.12880
  Beta  occ. eigenvalues --   -1.12712  -1.12696  -1.12425  -1.12378  -1.12284
  Beta  occ. eigenvalues --   -0.19652  -0.15062  -0.10684
  Beta virt. eigenvalues --   -0.07591  -0.07249  -0.04861  -0.03766  -0.02947
  Beta virt. eigenvalues --   -0.02689  -0.01348  -0.01085  -0.00822  -0.00487
  Beta virt. eigenvalues --    0.00010   0.00214   0.00408   0.00556   0.00801

 Mulliken charges and spin densities:
               1          2
     1  Na  -1.295111   0.232997
     2  Na  -1.042840   0.259210
     3  Na   2.078886   0.190189
     4  Na   0.329475  -0.387552
     5  Na  -1.026363   0.457212
     6  Na  -0.622547  -0.150533
     7  Na   1.578499   0.398476
 Sum of Mulliken charges =  -0.00000   1.00000

 Dipole moment (field-independent basis, Debye):
    X=             -0.0535    Y=             -0.3954    Z=              0.1684  Tot=              0.4330
 Quadrupole moment (field-independent basis, Debye-Ang):
   XX=            -46.3323   YY=            -80.7326   ZZ=            -67.5977
   XY=              0.3458   XZ=              3.7582   YZ=              0.4844

 Normal termination of Gaussian 16 at Mon Nov 13 18:02:27 2023.
