 Gaussian 16, Revision B.01,
 Gaussian 16:  ES64L-G16RevB.01 20-Dec-2017

 -------------------------
 #P B3LYP/6-311+g(d) force
 -------------------------

 ------------------------------
 Gaussian input prepared by ASE
 ------------------------------
 Symbolic Z-matrix:
 Charge =  0 Multiplicity = 2

                         Standard orientation:
 ---------------------------------------------------------------------
 Center     Atomic      Atomic             Coordinates (Angstroms)
 Number     Number       Type             X           Y           Z
 ---------------------------------------------------------------------
      1         11           0       -1.687830    1.003702   -0.632659
      2         11           0        3.393794   -1.218339   -0.786662
      3         11           0       -0.092340    3.300867    0.450522
      4         11           0        1.311842    0.935966   -0.744231
      5         11           0        1.356627   -1.158067    1.408724
      6         11           0       -1.645142   -1.084557    1.523666
      7         11           0       -2.636952   -1.779573   -1.219361
 ---------------------------------------------------------------------

 SCF Done:  E(UB3LYP) =  -1136.10987281     A.U. after   20 cycles

 The electronic state is 2-A.
 Alpha  occ. eigenvalues --  -38.43984 -38.43891 -38.43742 -38.43719 -38.43500
 Alpha  occ. eigenvalues --  -38.43495 -38.43487  -2.19900  -2.19801  -2.19746
 Alpha  occ. eigenvalues --   -2.19713  -2.19584  -2.19570  -2.19397  -1.13679
 Alpha  occ. eigenvalues --   -1.13621  -1.13587  -1.13547  -1.13514  -1.13500
 Alpha  occ. eigenvalues --   -1.13455  -1.13424  -1.13416  -1.13377  -1.13316
 Alpha  occ. eigenvalues --   -1.13304  -1.13292  -1.13242  -1.13232  -1.13194
 Alpha  occ. eigenvalues --   -1.13168  -1.13124  -1.13010  -1.13004  -1.12977
 Alpha  occ. eigenvalues --   -0.19070  -0.14012  -0.12767  -0.11082
 Alpha virt. eigenvalues --   -0.05567  -0.04817  -0.04360  -0.03905  -0.03000
 Alpha virt. eigenvalues --   -0.02145  -0.01399  -0.01259  -0.00290  -0.00007
 Alpha virt. eigenvalues --    0.00279   0.00637   0.00693   0.00829   0.00887

  Beta  occ. eigenvalues --  -38.43943 -38.43867 -38.43691 -38.43668 -38.43493
  Beta  occ. eigenvalues --  -38.43482 -38.43465  -2.19823  -2.19757  -2.19660
  Beta  occ. eigenvalues --   -2.19626  -2.19553  -2.19537  -2.19395  -1.13631
  Beta  occ. eigenvalues --   -1.13578  -1.13519  -1.13485  -1.13469  -1.13451
  Beta  occ. eigenvalues --   -1.13403  -1.13387  -1.13376  -1.13348  -1.13265
  Beta  occ. eigenvalues --   -1.13251  -1.13244  -1.13202  -1.13163  -1.13152
  Beta  occ. eigenvalues --   -1.13127  -1.13107  -1.13000  -1.12989  -1.12962
  Beta  occ. eigenvalues --   -0.18402  -0.13689  -0.12570
  Beta virt. eigenvalues --   -0.07128  -0.05382  -0.04692  -0.04005  -0.03472
  Beta virt. eigenvalues --   -0.02457  -0.01425  -0.01308  -0.01099  -0.00046
  Beta virt. eigenvalues --    0.00113   0.00370   0.00748   0.00829   0.00891

 Mulliken charges and spin densities:
               1          2
     1  Na  -0.630390   0.553321
     2  Na   0.821685   0.079865
     3  Na   0.771709   0.241170
     4  Na  -0.959695  -0.141760
     5  Na  -0.660385   0.265744
     6  Na   0.133534  -0.054458
     7  Na   0.523541   0.056118
 Sum of Mulliken charges =  -0.00000   1.00000

 Dipole moment (field-independent basis, Debye):
    X=              0.1992    Y=             -0.2576    Z=             -0.0212  Tot=              0.3264
 Quadrupole moment (field-independent basis, Debye-Ang):
   XX=            -62.4210   YY=            -63.5154   ZZ=            -69.1225
   XY=             -0.2951   XZ=             -1.1578   YZ=              4.4805

 Normal termination of Gaussian 16 at Mon Nov 13 16:15:11 2023.
