 Gaussian 16, Revision B.01,
 Gaussian 16:  ES64L-G16RevB.01 20-Dec-2017

 -------------------------
 #P B3LYP/6-311+g(d) force
 -------------------------

 ------------------------------
 Gaussian input prepared by ASE
 ------------------------------
 Symbolic Z-matrix:
 Charge =  0 Multiplicity = 2

                         Standard orientation:
 ---------------------------------------------------------------------
 Center     Atomic      Atomic             Coordinates (Angstroms)
 Number     Number       Type             X           Y           Z
 ---------------------------------------------------------------------
      1         11           0        0.717637   -0.048539   -1.025429
      2         11           0       -0.460250    2.710319   -0.971050
      3         11           0       -3.526886   -2.231118    0.402998
      4         11           0       -2.199875    0.326680   -0.438272
      5         11           0       -0.139741    1.162704    1.577866
      6         11           0        2.656015    0.119220    1.258010
      7         11           0        2.953101   -2.039266   -0.804123
 ---------------------------------------------------------------------

 SCF Done:  E(UB3LYP) =  -1136.09885617     A.U. after   23 cycles

 The electronic state is 2-A.
 Alpha  occ. eigenvalues --  -38.44345 -38.44334 -38.44213 -38.44073 -38.43954
 Alpha  occ. eigenvalues --  -38.43297 -38.43061  -2.20342  -2.20301  -2.20248
 Alpha  occ. eigenvalues --   -2.20229  -2.19959  -2.19144  -2.19101  -1.14226
 Alpha  occ. eigenvalues --   -1.14165  -1.14114  -1.13977  -1.13966  -1.13919
 Alpha  occ. eigenvalues --   -1.13892  -1.13881  -1.13842  -1.13838  -1.13816
 Alpha  occ. eigenvalues --   -1.13783  -1.13626  -1.13572  -1.13546  -1.12902
 Alpha  occ. eigenvalues --   -1.12838  -1.12802  -1.12743  -1.12741  -1.12640
 Alpha  occ. eigenvalues --   -0.19669  -0.14374  -0.11934  -0.11413
 Alpha virt. eigenvalues --   -0.05941  -0.05567  -0.04363  -0.03288  -0.02842
 Alpha virt. eigenvalues --   -0.02044  -0.01736  -0.01182  -0.00596  -0.00131
 Alpha virt. eigenvalues --    0.00205   0.00344   0.00644   0.00736   0.00815

  Beta  occ. eigenvalues --  -38.44310 -38.44302 -38.44144 -38.44029 -38.43924
  Beta  occ. eigenvalues --  -38.43298 -38.43048  -2.20267  -2.20195  -2.20183
  Beta  occ. eigenvalues --   -2.20161  -2.19908  -2.19125  -2.19102  -1.14157
  Beta  occ. eigenvalues --   -1.14112  -1.14027  -1.13926  -1.13908  -1.13852
  Beta  occ. eigenvalues --   -1.13828  -1.13816  -1.13804  -1.13768  -1.13758
  Beta  occ. eigenvalues --   -1.13723  -1.13586  -1.13526  -1.13497  -1.12895
  Beta  occ. eigenvalues --   -1.12829  -1.12776  -1.12743  -1.12739  -1.12622
  Beta  occ. eigenvalues --   -0.18932  -0.14089  -0.11686
  Beta virt. eigenvalues --   -0.07399  -0.05790  -0.05291  -0.03903  -0.02983
  Beta virt. eigenvalues --   -0.02105  -0.01694  -0.01474  -0.00994  -0.00393
  Beta virt. eigenvalues --    0.00024   0.00263   0.00524   0.00762   0.00807

 Mulliken charges and spin densities:
               1          2
     1  Na  -1.440242   0.437012
     2  Na   2.415718  -0.082788
     3  Na  -0.115316  -0.090431
     4  Na  -0.737429   0.221960
     5  Na  -0.186188   0.335061
     6  Na  -0.192689   0.038475
     7  Na   0.256146   0.140712
 Sum of Mulliken charges =  -0.00000   1.00000

 Dipole moment (field-independent basis, Debye):
    X=              1.4589    Y=              0.3971    Z=              0.0580  Tot=              1.5131
 Quadrupole moment (field-independent basis, Debye-Ang):
   XX=            -63.6486   YY=            -61.2316   ZZ=            -70.4014
   XY=             -3.9527   XZ=              0.0495   YZ=             -0.9475

 Normal termination of Gaussian 16 at Mon Nov 13 16:17:38 2023.
