 Gaussian 16, Revision B.01,
 Gaussian 16:  ES64L-G16RevB.01 20-Dec-2017

 -------------------------
 #P B3LYP/6-311+g(d) force
 -------------------------

 ------------------------------
 Gaussian input prepared by ASE
 ------------------------------
 Symbolic Z-matrix:
 Charge =  0 Multiplicity = 2

                         Standard orientation:
 ---------------------------------------------------------------------
 Center     Atomic      Atomic             Coordinates (Angstroms)
 Number     Number       Type             X           Y           Z
 ---------------------------------------------------------------------
      1         11           0       -0.811385   -1.462774   -1.315274
      2         11           0        1.529534   -2.389562   -0.474518
      3         11           0       -3.499329    1.714873   -0.204362
      4         11           0       -1.712993   -0.241498    0.863381
      5         11           0        0.636320   -1.157091    1.703359
      6         11           0        0.979615    0.730035   -0.519635
      7         11           0        2.878239    2.806017   -0.052952
 ---------------------------------------------------------------------

 SCF Done:  E(UB3LYP) =  -1136.06735936     A.U. after   24 cycles

 The electronic state is 2-A.
 Alpha  occ. eigenvalues --  -38.45289 -38.45198 -38.45041 -38.44877 -38.44323
 Alpha  occ. eigenvalues --  -38.43681 -38.42903  -2.21390  -2.21202  -2.21051
 Alpha  occ. eigenvalues --   -2.21011  -2.20508  -2.19496  -2.19053  -1.15400
 Alpha  occ. eigenvalues --   -1.15313  -1.15123  -1.14953  -1.14944  -1.14807
 Alpha  occ. eigenvalues --   -1.14750  -1.14643  -1.14638  -1.14611  -1.14594
 Alpha  occ. eigenvalues --   -1.14487  -1.14085  -1.14057  -1.14009  -1.13294
 Alpha  occ. eigenvalues --   -1.13129  -1.13127  -1.12743  -1.12686  -1.12635
 Alpha  occ. eigenvalues --   -0.20543  -0.13549  -0.12203  -0.11665
 Alpha virt. eigenvalues --   -0.06694  -0.05730  -0.03470  -0.03101  -0.02829
 Alpha virt. eigenvalues --   -0.02298  -0.02182  -0.01083  -0.00372   0.00015
 Alpha virt. eigenvalues --    0.00101   0.00418   0.00508   0.00782   0.00873

  Beta  occ. eigenvalues --  -38.45260 -38.45207 -38.44973 -38.44781 -38.44280
  Beta  occ. eigenvalues --  -38.43693 -38.42878  -2.21340  -2.21084  -2.21028
  Beta  occ. eigenvalues --   -2.20880  -2.20437  -2.19518  -2.19012  -1.15357
  Beta  occ. eigenvalues --   -1.15214  -1.15040  -1.14910  -1.14855  -1.14728
  Beta  occ. eigenvalues --   -1.14708  -1.14655  -1.14643  -1.14530  -1.14484
  Beta  occ. eigenvalues --   -1.14385  -1.14038  -1.13993  -1.13918  -1.13304
  Beta  occ. eigenvalues --   -1.13144  -1.13140  -1.12726  -1.12619  -1.12600
  Beta  occ. eigenvalues --   -0.19681  -0.13387  -0.12106
  Beta virt. eigenvalues --   -0.07240  -0.06548  -0.05525  -0.03080  -0.02781
  Beta virt. eigenvalues --   -0.02287  -0.01848  -0.01565  -0.00914  -0.00081
  Beta virt. eigenvalues --    0.00013   0.00168   0.00528   0.00628   0.00867

 Mulliken charges and spin densities:
               1          2
     1  Na   0.086935   0.157750
     2  Na   1.501142   0.144220
     3  Na   0.219110  -0.026300
     4  Na   0.029247   0.197300
     5  Na  -0.054961   0.200866
     6  Na  -2.328170   0.516834
     7  Na   0.546697  -0.190668
 Sum of Mulliken charges =  -0.00000   1.00000

 Dipole moment (field-independent basis, Debye):
    X=             -0.6257    Y=             -0.1131    Z=             -0.0841  Tot=              0.6414
 Quadrupole moment (field-independent basis, Debye-Ang):
   XX=            -58.0841   YY=            -62.0966   ZZ=            -72.3290
   XY=             -7.5087   XZ=              2.7334   YZ=              0.6327

 Normal termination of Gaussian 16 at Mon Nov 13 16:13:15 2023.
