 Gaussian 16, Revision B.01,
 Gaussian 16:  ES64L-G16RevB.01 20-Dec-2017

 -------------------------
 #P B3LYP/6-311+g(d) force
 -------------------------

 ------------------------------
 Gaussian input prepared by ASE
 ------------------------------
 Symbolic Z-matrix:
 Charge =  0 Multiplicity = 2

                         Standard orientation:
 ---------------------------------------------------------------------
 Center     Atomic      Atomic             Coordinates (Angstroms)
 Number     Number       Type             X           Y           Z
 ---------------------------------------------------------------------
      1         11           0        0.817108   -1.060375    0.326691
      2         11           0       -1.929387   -0.801919    1.504932
      3         11           0       -1.607945   -1.604649   -1.363384
      4         11           0       -2.730849    1.093348   -0.672919
      5         11           0       -0.288738    1.652771    0.980580
      6         11           0        1.953047    1.378382   -0.996908
      7         11           0        3.786764   -0.657558    0.221008
 ---------------------------------------------------------------------

 SCF Done:  E(UB3LYP) =  -1136.09380994     A.U. after   27 cycles

 The electronic state is 2-A.
 Alpha  occ. eigenvalues --  -38.45658 -38.44577 -38.44257 -38.44008 -38.43334
 Alpha  occ. eigenvalues --  -38.43318 -38.42505  -2.21529  -2.20570  -2.20231
 Alpha  occ. eigenvalues --   -2.20111  -2.19481  -2.19331  -2.18581  -1.15231
 Alpha  occ. eigenvalues --   -1.15204  -1.15149  -1.14311  -1.14233  -1.14194
 Alpha  occ. eigenvalues --   -1.13986  -1.13861  -1.13858  -1.13848  -1.13750
 Alpha  occ. eigenvalues --   -1.13718  -1.13230  -1.13160  -1.13112  -1.12983
 Alpha  occ. eigenvalues --   -1.12943  -1.12922  -1.12273  -1.12233  -1.12193
 Alpha  occ. eigenvalues --   -0.20048  -0.15028  -0.11370  -0.11189
 Alpha virt. eigenvalues --   -0.07207  -0.04990  -0.04037  -0.03089  -0.02764
 Alpha virt. eigenvalues --   -0.02264  -0.02025  -0.00845  -0.00296   0.00018
 Alpha virt. eigenvalues --    0.00137   0.00368   0.00405   0.00817   0.00887

  Beta  occ. eigenvalues --  -38.45664 -38.44534 -38.44243 -38.43949 -38.43294
  Beta  occ. eigenvalues --  -38.43282 -38.42474  -2.21540  -2.20494  -2.20204
  Beta  occ. eigenvalues --   -2.20010  -2.19424  -2.19259  -2.18533  -1.15239
  Beta  occ. eigenvalues --   -1.15204  -1.15157  -1.14267  -1.14153  -1.14136
  Beta  occ. eigenvalues --   -1.13969  -1.13839  -1.13830  -1.13784  -1.13659
  Beta  occ. eigenvalues --   -1.13636  -1.13196  -1.13113  -1.13029  -1.12938
  Beta  occ. eigenvalues --   -1.12896  -1.12848  -1.12245  -1.12201  -1.12114
  Beta  occ. eigenvalues --   -0.19285  -0.14794  -0.11119
  Beta virt. eigenvalues --   -0.07090  -0.07028  -0.04782  -0.03555  -0.02972
  Beta virt. eigenvalues --   -0.02651  -0.01701  -0.01052  -0.00668  -0.00052
  Beta virt. eigenvalues --    0.00078   0.00211   0.00381   0.00589   0.00855

 Mulliken charges and spin densities:
               1          2
     1  Na  -0.360047   0.486850
     2  Na   0.013627  -0.159270
     3  Na  -0.003035   0.243402
     4  Na  -0.215795   0.278596
     5  Na   0.391233   0.217933
     6  Na  -0.017569   0.056965
     7  Na   0.191586  -0.124476
 Sum of Mulliken charges =  -0.00000   1.00000

 Dipole moment (field-independent basis, Debye):
    X=              1.1902    Y=              0.0999    Z=             -0.0290  Tot=              1.1948
 Quadrupole moment (field-independent basis, Debye-Ang):
   XX=            -46.4101   YY=            -77.7034   ZZ=            -68.8989
   XY=             -1.5411   XZ=             -0.6039   YZ=             -2.2178

 Normal termination of Gaussian 16 at Mon Nov 13 16:33:41 2023.
