 Gaussian 16, Revision B.01,
 Gaussian 16:  ES64L-G16RevB.01 20-Dec-2017

 -------------------------
 #P B3LYP/6-311+g(d) force
 -------------------------

 ------------------------------
 Gaussian input prepared by ASE
 ------------------------------
 Symbolic Z-matrix:
 Charge =  0 Multiplicity = 2

                         Standard orientation:
 ---------------------------------------------------------------------
 Center     Atomic      Atomic             Coordinates (Angstroms)
 Number     Number       Type             X           Y           Z
 ---------------------------------------------------------------------
      1         11           0       -0.417049   -2.393534   -1.547618
      2         11           0        1.726454   -1.187579    2.600558
      3         11           0        3.982962    1.076109   -0.799919
      4         11           0        1.425577   -0.401730   -0.278298
      5         11           0       -3.887503   -0.572432    0.619285
      6         11           0       -1.428490    0.340326   -0.840477
      7         11           0       -1.401952    3.138840    0.246469
 ---------------------------------------------------------------------

 SCF Done:  E(UB3LYP) =  -1136.08915294     A.U. after   34 cycles

 The electronic state is 2-A.
 Alpha  occ. eigenvalues --  -38.46439 -38.45004 -38.44503 -38.44124 -38.43501
 Alpha  occ. eigenvalues --  -38.43341 -38.42934  -2.22202  -2.20816  -2.20345
 Alpha  occ. eigenvalues --   -2.19896  -2.19431  -2.19408  -2.19000  -1.15905
 Alpha  occ. eigenvalues --   -1.15865  -1.15809  -1.14501  -1.14436  -1.14431
 Alpha  occ. eigenvalues --   -1.14024  -1.13955  -1.13937  -1.13654  -1.13563
 Alpha  occ. eigenvalues --   -1.13527  -1.13269  -1.13139  -1.13089  -1.13075
 Alpha  occ. eigenvalues --   -1.13013  -1.12928  -1.12683  -1.12679  -1.12597
 Alpha  occ. eigenvalues --   -0.17801  -0.13736  -0.11449  -0.11023
 Alpha virt. eigenvalues --   -0.07686  -0.04533  -0.04044  -0.03596  -0.02898
 Alpha virt. eigenvalues --   -0.02642  -0.01987  -0.00922  -0.00705  -0.00539
 Alpha virt. eigenvalues --   -0.00192   0.00017   0.00244   0.00545   0.00740

  Beta  occ. eigenvalues --  -38.46442 -38.44932 -38.44375 -38.44181 -38.43453
  Beta  occ. eigenvalues --  -38.43334 -38.42907  -2.22207  -2.20681  -2.20108
  Beta  occ. eigenvalues --   -2.20000  -2.19413  -2.19327  -2.18966  -1.15909
  Beta  occ. eigenvalues --   -1.15866  -1.15815  -1.14413  -1.14344  -1.14334
  Beta  occ. eigenvalues --   -1.13867  -1.13794  -1.13773  -1.13726  -1.13632
  Beta  occ. eigenvalues --   -1.13594  -1.13214  -1.13154  -1.13057  -1.13031
  Beta  occ. eigenvalues --   -1.12948  -1.12903  -1.12654  -1.12584  -1.12561
  Beta  occ. eigenvalues --   -0.17282  -0.13135  -0.11464
  Beta virt. eigenvalues --   -0.07653  -0.06850  -0.04497  -0.03552  -0.03431
  Beta virt. eigenvalues --   -0.02686  -0.01847  -0.01640  -0.00886  -0.00458
  Beta virt. eigenvalues --   -0.00270   0.00014   0.00071   0.00300   0.00631

 Mulliken charges and spin densities:
               1          2
     1  Na   1.172669   0.060039
     2  Na   0.574039   0.535946
     3  Na   0.304360   0.096908
     4  Na  -2.698324   0.347985
     5  Na  -0.267519  -0.187714
     6  Na   0.771036   0.467641
     7  Na   0.143739  -0.320806
 Sum of Mulliken charges =  -0.00000   1.00000

 Dipole moment (field-independent basis, Debye):
    X=             -1.1809    Y=             -0.3761    Z=              0.7058  Tot=              1.4262
 Quadrupole moment (field-independent basis, Debye-Ang):
   XX=            -52.8741   YY=            -67.6003   ZZ=            -70.7268
   XY=              5.6456   XZ=             -4.6006   YZ=              0.6038

 Normal termination of Gaussian 16 at Mon Nov 13 18:27:02 2023.
