 Gaussian 16, Revision B.01,
 Gaussian 16:  ES64L-G16RevB.01 20-Dec-2017

 -------------------------
 #P B3LYP/6-311+g(d) force
 -------------------------

 ------------------------------
 Gaussian input prepared by ASE
 ------------------------------
 Symbolic Z-matrix:
 Charge =  0 Multiplicity = 2

                         Standard orientation:
 ---------------------------------------------------------------------
 Center     Atomic      Atomic             Coordinates (Angstroms)
 Number     Number       Type             X           Y           Z
 ---------------------------------------------------------------------
      1         11           0        0.017902    0.778590    2.276404
      2         11           0       -0.062606   -1.890394   -0.776697
      3         11           0        4.683836   -0.788268    0.030098
      4         11           0        1.886487    0.264663   -0.018957
      5         11           0        0.031803    2.066577   -1.542623
      6         11           0       -1.896332    0.356310    0.000931
      7         11           0       -4.661091   -0.787478    0.030844
 ---------------------------------------------------------------------

 SCF Done:  E(UB3LYP) =  -1136.08928918     A.U. after   37 cycles

 The electronic state is 2-A.
 Alpha  occ. eigenvalues --  -38.46095 -38.44756 -38.44577 -38.44560 -38.44339
 Alpha  occ. eigenvalues --  -38.43169 -38.43145  -2.21984  -2.20690  -2.20334
 Alpha  occ. eigenvalues --   -2.20319  -2.20283  -2.19283  -2.19257  -1.15672
 Alpha  occ. eigenvalues --   -1.15611  -1.15602  -1.14361  -1.14352  -1.14275
 Alpha  occ. eigenvalues --   -1.14076  -1.14061  -1.14002  -1.13995  -1.13986
 Alpha  occ. eigenvalues --   -1.13979  -1.13975  -1.13935  -1.13867  -1.12985
 Alpha  occ. eigenvalues --   -1.12972  -1.12960  -1.12946  -1.12869  -1.12841
 Alpha  occ. eigenvalues --   -0.19500  -0.13132  -0.11888  -0.11716
 Alpha virt. eigenvalues --   -0.07892  -0.04774  -0.03798  -0.03374  -0.03097
 Alpha virt. eigenvalues --   -0.02762  -0.02591  -0.01441  -0.00601  -0.00406
 Alpha virt. eigenvalues --   -0.00015   0.00155   0.00416   0.00650   0.00663

  Beta  occ. eigenvalues --  -38.46001 -38.44664 -38.44644 -38.44640 -38.44235
  Beta  occ. eigenvalues --  -38.43143 -38.43120  -2.21813  -2.20496  -2.20478
  Beta  occ. eigenvalues --   -2.20476  -2.20093  -2.19240  -2.19216  -1.15575
  Beta  occ. eigenvalues --   -1.15474  -1.15459  -1.14228  -1.14203  -1.14184
  Beta  occ. eigenvalues --   -1.14166  -1.14112  -1.14110  -1.14101  -1.14091
  Beta  occ. eigenvalues --   -1.14079  -1.13837  -1.13827  -1.13715  -1.12966
  Beta  occ. eigenvalues --   -1.12938  -1.12872  -1.12860  -1.12846  -1.12836
  Beta  occ. eigenvalues --   -0.18333  -0.13835  -0.11617
  Beta virt. eigenvalues --   -0.07485  -0.07301  -0.04926  -0.02960  -0.02914
  Beta virt. eigenvalues --   -0.02738  -0.02021  -0.01729  -0.01281  -0.00727
  Beta virt. eigenvalues --   -0.00504  -0.00094   0.00314   0.00544   0.00790

 Mulliken charges and spin densities:
               1          2
     1  Na   0.639209   0.584314
     2  Na  -0.162351   0.558315
     3  Na  -0.435852  -0.531709
     4  Na  -1.225941   0.078704
     5  Na   2.061075   0.644509
     6  Na  -0.856974   0.165893
     7  Na  -0.019166  -0.500027
 Sum of Mulliken charges =  -0.00000   1.00000

 Dipole moment (field-independent basis, Debye):
    X=             -0.0232    Y=             -0.1325    Z=             -0.0367  Tot=              0.1395
 Quadrupole moment (field-independent basis, Debye-Ang):
   XX=            -60.0981   YY=            -67.6786   ZZ=            -69.9362
   XY=              0.2059   XZ=             -0.0040   YZ=              0.1198

 Normal termination of Gaussian 16 at Mon Nov 13 16:18:54 2023.
