 Gaussian 16, Revision B.01,
 Gaussian 16:  ES64L-G16RevB.01 20-Dec-2017

 -------------------------
 #P B3LYP/6-311+g(d) force
 -------------------------

 ------------------------------
 Gaussian input prepared by ASE
 ------------------------------
 Symbolic Z-matrix:
 Charge =  0 Multiplicity = 2

                         Standard orientation:
 ---------------------------------------------------------------------
 Center     Atomic      Atomic             Coordinates (Angstroms)
 Number     Number       Type             X           Y           Z
 ---------------------------------------------------------------------
      1         11           0        0.634677   -2.593752    0.733398
      2         11           0        3.160902   -1.547136   -0.501114
      3         11           0        2.272634    2.874439    1.150818
      4         11           0        1.699842    1.002152   -1.119487
      5         11           0       -0.917593   -0.269168   -0.362916
      6         11           0       -3.569521    0.679958   -1.382102
      7         11           0       -3.280942   -0.146492    1.481401
 ---------------------------------------------------------------------

 SCF Done:  E(UB3LYP) =  -1136.09689732     A.U. after   25 cycles

 The electronic state is 2-A.
 Alpha  occ. eigenvalues --  -38.45155 -38.45066 -38.44519 -38.44370 -38.43559
 Alpha  occ. eigenvalues --  -38.43549 -38.43413  -2.21047  -2.20955  -2.20584
 Alpha  occ. eigenvalues --   -2.20286  -2.19518  -2.19454  -2.19236  -1.14788
 Alpha  occ. eigenvalues --   -1.14711  -1.14673  -1.14650  -1.14621  -1.14576
 Alpha  occ. eigenvalues --   -1.14326  -1.14286  -1.14213  -1.13925  -1.13908
 Alpha  occ. eigenvalues --   -1.13895  -1.13230  -1.13208  -1.13154  -1.13151
 Alpha  occ. eigenvalues --   -1.13103  -1.13066  -1.12874  -1.12867  -1.12850
 Alpha  occ. eigenvalues --   -0.18244  -0.14874  -0.11863  -0.10094
 Alpha virt. eigenvalues --   -0.07134  -0.05762  -0.04195  -0.03251  -0.03066
 Alpha virt. eigenvalues --   -0.02564  -0.01823  -0.01194  -0.00788  -0.00188
 Alpha virt. eigenvalues --    0.00043   0.00187   0.00236   0.00616   0.00716

  Beta  occ. eigenvalues --  -38.45132 -38.45050 -38.44490 -38.44318 -38.43548
  Beta  occ. eigenvalues --  -38.43543 -38.43376  -2.21006  -2.20925  -2.20542
  Beta  occ. eigenvalues --   -2.20189  -2.19511  -2.19437  -2.19166  -1.14764
  Beta  occ. eigenvalues --   -1.14663  -1.14637  -1.14630  -1.14603  -1.14553
  Beta  occ. eigenvalues --   -1.14284  -1.14231  -1.14160  -1.13854  -1.13848
  Beta  occ. eigenvalues --   -1.13828  -1.13228  -1.13173  -1.13147  -1.13141
  Beta  occ. eigenvalues --   -1.13095  -1.13035  -1.12826  -1.12818  -1.12808
  Beta  occ. eigenvalues --   -0.17707  -0.14586  -0.11563
  Beta virt. eigenvalues --   -0.06898  -0.06719  -0.04978  -0.03995  -0.03151
  Beta virt. eigenvalues --   -0.02839  -0.02223  -0.01313  -0.00935  -0.00409
  Beta virt. eigenvalues --   -0.00123   0.00127   0.00336   0.00395   0.00776

 Mulliken charges and spin densities:
               1          2
     1  Na   1.957943   0.010463
     2  Na  -0.807133   0.226489
     3  Na  -0.158358   0.270659
     4  Na   1.594390  -0.381430
     5  Na  -3.641289   0.958748
     6  Na   0.296466  -0.012940
     7  Na   0.757981  -0.071989
 Sum of Mulliken charges =  -0.00000   1.00000

 Dipole moment (field-independent basis, Debye):
    X=             -0.7113    Y=             -0.4954    Z=              0.7104  Tot=              1.1207
 Quadrupole moment (field-independent basis, Debye-Ang):
   XX=            -51.1052   YY=            -74.6739   ZZ=            -69.0194
   XY=             -4.7108   XZ=             -2.2865   YZ=              1.4731

 Normal termination of Gaussian 16 at Mon Nov 13 17:13:20 2023.
