 Gaussian 16, Revision B.01,
 Gaussian 16:  ES64L-G16RevB.01 20-Dec-2017

 -------------------------
 #P B3LYP/6-311+g(d) force
 -------------------------

 ------------------------------
 Gaussian input prepared by ASE
 ------------------------------
 Symbolic Z-matrix:
 Charge =  0 Multiplicity = 2

                         Standard orientation:
 ---------------------------------------------------------------------
 Center     Atomic      Atomic             Coordinates (Angstroms)
 Number     Number       Type             X           Y           Z
 ---------------------------------------------------------------------
      1         11           0        0.330123   -0.905315   -1.324899
      2         11           0        0.910555   -0.500606    1.591374
      3         11           0        3.146987   -0.465719   -0.402257
      4         11           0        1.179933    1.792328   -0.304577
      5         11           0       -1.408282    1.362309    1.165013
      6         11           0       -1.740802   -1.592053    0.740298
      7         11           0       -2.418513    0.309055   -1.464952
 ---------------------------------------------------------------------

 SCF Done:  E(UB3LYP) =  -1136.09675638     A.U. after   26 cycles

 The electronic state is 2-A.
 Alpha  occ. eigenvalues --  -38.44494 -38.44462 -38.44055 -38.43893 -38.43503
 Alpha  occ. eigenvalues --  -38.42816 -38.42485  -2.20471  -2.20462  -2.20143
 Alpha  occ. eigenvalues --   -2.20081  -2.19592  -2.18982  -2.18577  -1.14233
 Alpha  occ. eigenvalues --   -1.14205  -1.14148  -1.14133  -1.14096  -1.14075
 Alpha  occ. eigenvalues --   -1.13985  -1.13800  -1.13761  -1.13750  -1.13657
 Alpha  occ. eigenvalues --   -1.13650  -1.13321  -1.13215  -1.13198  -1.12676
 Alpha  occ. eigenvalues --   -1.12630  -1.12588  -1.12268  -1.12229  -1.12198
 Alpha  occ. eigenvalues --   -0.20962  -0.14544  -0.12536  -0.11351
 Alpha virt. eigenvalues --   -0.06128  -0.04640  -0.04068  -0.03469  -0.02618
 Alpha virt. eigenvalues --   -0.02450  -0.01744  -0.00598  -0.00244   0.00273
 Alpha virt. eigenvalues --    0.00497   0.00623   0.00856   0.00940   0.01019

  Beta  occ. eigenvalues --  -38.44493 -38.44422 -38.44001 -38.43822 -38.43468
  Beta  occ. eigenvalues --  -38.42787 -38.42470  -2.20473  -2.20388  -2.20049
  Beta  occ. eigenvalues --   -2.19955  -2.19529  -2.18938  -2.18557  -1.14229
  Beta  occ. eigenvalues --   -1.14165  -1.14128  -1.14100  -1.14070  -1.14014
  Beta  occ. eigenvalues --   -1.13896  -1.13725  -1.13701  -1.13673  -1.13572
  Beta  occ. eigenvalues --   -1.13544  -1.13276  -1.13173  -1.13135  -1.12645
  Beta  occ. eigenvalues --   -1.12565  -1.12544  -1.12256  -1.12197  -1.12159
  Beta  occ. eigenvalues --   -0.20088  -0.14350  -0.11118
  Beta virt. eigenvalues --   -0.08171  -0.05964  -0.04038  -0.03934  -0.02994
  Beta virt. eigenvalues --   -0.01908  -0.01804  -0.01607  -0.00245  -0.00206
  Beta virt. eigenvalues --    0.00316   0.00566   0.00790   0.00876   0.00999

 Mulliken charges and spin densities:
               1          2
     1  Na  -0.513390   0.434846
     2  Na  -0.479064   0.098232
     3  Na   1.254994  -0.027127
     4  Na  -0.724211   0.220794
     5  Na   0.390642   0.155810
     6  Na   0.176833  -0.026468
     7  Na  -0.105805   0.143912
 Sum of Mulliken charges =  -0.00000   1.00000

 Dipole moment (field-independent basis, Debye):
    X=              0.3107    Y=              0.1419    Z=             -0.1612  Tot=              0.3777
 Quadrupole moment (field-independent basis, Debye-Ang):
   XX=            -52.0953   YY=            -73.2854   ZZ=            -69.8335
   XY=             -0.8886   XZ=              0.3192   YZ=             -7.6419

 Normal termination of Gaussian 16 at Mon Nov 13 18:18:50 2023.
