 Gaussian 16, Revision B.01,
 Gaussian 16:  ES64L-G16RevB.01 20-Dec-2017

 -------------------------
 #P B3LYP/6-311+g(d) force
 -------------------------

 ------------------------------
 Gaussian input prepared by ASE
 ------------------------------
 Symbolic Z-matrix:
 Charge =  0 Multiplicity = 2

                         Standard orientation:
 ---------------------------------------------------------------------
 Center     Atomic      Atomic             Coordinates (Angstroms)
 Number     Number       Type             X           Y           Z
 ---------------------------------------------------------------------
      1         11           0        0.760712   -0.435596    1.448338
      2         11           0       -0.566362   -2.279635   -0.501639
      3         11           0       -2.236946   -0.585936    1.313346
      4         11           0       -2.465320    1.116961   -1.149293
      5         11           0        0.985204    2.466466    0.730147
      6         11           0        0.445876    0.409845   -1.392431
      7         11           0        3.076837   -0.692104   -0.448467
 ---------------------------------------------------------------------

 SCF Done:  E(UB3LYP) =  -1136.10966056     A.U. after   21 cycles

 The electronic state is 2-A.
 Alpha  occ. eigenvalues --  -38.44450 -38.43961 -38.43916 -38.43325 -38.43275
 Alpha  occ. eigenvalues --  -38.43170 -38.43086  -2.20353  -2.19917  -2.19869
 Alpha  occ. eigenvalues --   -2.19478  -2.19377  -2.19234  -2.19085  -1.14082
 Alpha  occ. eigenvalues --   -1.14052  -1.13931  -1.13687  -1.13673  -1.13599
 Alpha  occ. eigenvalues --   -1.13550  -1.13453  -1.13421  -1.13310  -1.13201
 Alpha  occ. eigenvalues --   -1.13099  -1.13086  -1.13006  -1.12974  -1.12886
 Alpha  occ. eigenvalues --   -1.12850  -1.12806  -1.12752  -1.12719  -1.12652
 Alpha  occ. eigenvalues --   -0.20042  -0.13691  -0.11926  -0.11759
 Alpha virt. eigenvalues --   -0.05790  -0.04308  -0.04077  -0.03372  -0.02906
 Alpha virt. eigenvalues --   -0.02565  -0.01736  -0.00614  -0.00376   0.00343
 Alpha virt. eigenvalues --    0.00498   0.00563   0.00726   0.00920   0.01018

  Beta  occ. eigenvalues --  -38.44440 -38.43932 -38.43881 -38.43305 -38.43212
  Beta  occ. eigenvalues --  -38.43111 -38.43071  -2.20337  -2.19856  -2.19819
  Beta  occ. eigenvalues --   -2.19367  -2.19274  -2.19201  -2.19064  -1.14071
  Beta  occ. eigenvalues --   -1.14027  -1.13920  -1.13649  -1.13619  -1.13545
  Beta  occ. eigenvalues --   -1.13503  -1.13416  -1.13383  -1.13246  -1.13135
  Beta  occ. eigenvalues --   -1.13014  -1.13006  -1.12939  -1.12890  -1.12845
  Beta  occ. eigenvalues --   -1.12803  -1.12784  -1.12727  -1.12662  -1.12641
  Beta  occ. eigenvalues --   -0.19274  -0.13455  -0.11643
  Beta virt. eigenvalues --   -0.07597  -0.05721  -0.04249  -0.03623  -0.03028
  Beta virt. eigenvalues --   -0.02201  -0.01633  -0.01515  -0.00564  -0.00097
  Beta virt. eigenvalues --    0.00369   0.00514   0.00585   0.00807   0.00938

 Mulliken charges and spin densities:
               1          2
     1  Na  -0.165138   0.230466
     2  Na  -0.049814   0.342188
     3  Na   0.423827   0.033830
     4  Na   0.103581   0.066139
     5  Na  -0.092692   0.120800
     6  Na  -0.980077   0.112418
     7  Na   0.760313   0.094159
 Sum of Mulliken charges =  -0.00000   1.00000

 Dipole moment (field-independent basis, Debye):
    X=              0.2443    Y=              0.0654    Z=             -0.0519  Tot=              0.2582
 Quadrupole moment (field-independent basis, Debye-Ang):
   XX=            -54.2341   YY=            -70.0996   ZZ=            -68.6099
   XY=             -0.9659   XZ=             -0.7741   YZ=              1.9850

 Normal termination of Gaussian 16 at Mon Nov 13 18:42:08 2023.
