 Gaussian 16, Revision B.01,
 Gaussian 16:  ES64L-G16RevB.01 20-Dec-2017

 -------------------------
 #P B3LYP/6-311+g(d) force
 -------------------------

 ------------------------------
 Gaussian input prepared by ASE
 ------------------------------
 Symbolic Z-matrix:
 Charge =  0 Multiplicity = 2

                         Standard orientation:
 ---------------------------------------------------------------------
 Center     Atomic      Atomic             Coordinates (Angstroms)
 Number     Number       Type             X           Y           Z
 ---------------------------------------------------------------------
      1         11           0       -3.161994    2.506776   -0.662416
      2         11           0        3.176916    2.329170    0.954671
      3         11           0        3.096318   -2.258694   -0.393874
      4         11           0        1.912472    0.431839   -0.993180
      5         11           0       -0.999525    0.467675   -0.254129
      6         11           0       -1.850518   -1.223271    2.072214
      7         11           0       -2.173670   -2.253495   -0.723286
 ---------------------------------------------------------------------

 SCF Done:  E(UB3LYP) =  -1136.09023103     A.U. after   31 cycles

 The electronic state is 2-A.
 Alpha  occ. eigenvalues --  -38.45166 -38.44827 -38.44808 -38.44537 -38.43842
 Alpha  occ. eigenvalues --  -38.43493 -38.43410  -2.21029  -2.20728  -2.20623
 Alpha  occ. eigenvalues --   -2.20373  -2.19804  -2.19556  -2.19219  -1.14778
 Alpha  occ. eigenvalues --   -1.14721  -1.14643  -1.14422  -1.14336  -1.14319
 Alpha  occ. eigenvalues --   -1.14313  -1.14254  -1.14236  -1.14066  -1.13995
 Alpha  occ. eigenvalues --   -1.13981  -1.13571  -1.13441  -1.13427  -1.13249
 Alpha  occ. eigenvalues --   -1.13226  -1.13178  -1.12863  -1.12856  -1.12851
 Alpha  occ. eigenvalues --   -0.17706  -0.14359  -0.11599  -0.10489
 Alpha virt. eigenvalues --   -0.06782  -0.06194  -0.04091  -0.03398  -0.02757
 Alpha virt. eigenvalues --   -0.02148  -0.01921  -0.01687  -0.00642  -0.00413
 Alpha virt. eigenvalues --   -0.00205  -0.00025   0.00115   0.00328   0.00697

  Beta  occ. eigenvalues --  -38.45188 -38.44778 -38.44744 -38.44440 -38.43833
  Beta  occ. eigenvalues --  -38.43490 -38.43400  -2.21073  -2.20634  -2.20505
  Beta  occ. eigenvalues --   -2.20193  -2.19797  -2.19550  -2.19201  -1.14804
  Beta  occ. eigenvalues --   -1.14728  -1.14677  -1.14359  -1.14277  -1.14259
  Beta  occ. eigenvalues --   -1.14242  -1.14172  -1.14155  -1.13950  -1.13872
  Beta  occ. eigenvalues --   -1.13859  -1.13572  -1.13429  -1.13368  -1.13241
  Beta  occ. eigenvalues --   -1.13205  -1.13185  -1.12853  -1.12845  -1.12838
  Beta  occ. eigenvalues --   -0.17424  -0.13714  -0.11073
  Beta virt. eigenvalues --   -0.07251  -0.06444  -0.05861  -0.03675  -0.03302
  Beta virt. eigenvalues --   -0.02371  -0.01802  -0.01648  -0.01392  -0.00465
  Beta virt. eigenvalues --   -0.00155  -0.00006   0.00104   0.00256   0.00439

 Mulliken charges and spin densities:
               1          2
     1  Na  -0.263823   0.021671
     2  Na  -0.045907   0.451495
     3  Na  -0.494513   0.417462
     4  Na   3.019438  -0.286900
     5  Na  -5.108991   0.577457
     6  Na   1.579996  -0.038886
     7  Na   1.313800  -0.142298
 Sum of Mulliken charges =  -0.00000   1.00000

 Dipole moment (field-independent basis, Debye):
    X=             -0.1540    Y=             -1.3831    Z=              0.8423  Tot=              1.6267
 Quadrupole moment (field-independent basis, Debye-Ang):
   XX=            -61.6490   YY=            -70.5847   ZZ=            -65.9402
   XY=              0.4161   XZ=              3.1222   YZ=              4.1028

 Normal termination of Gaussian 16 at Mon Nov 13 17:12:32 2023.
