 Gaussian 16, Revision B.01,
 Gaussian 16:  ES64L-G16RevB.01 20-Dec-2017

 -------------------------
 #P B3LYP/6-311+g(d) force
 -------------------------

 ------------------------------
 Gaussian input prepared by ASE
 ------------------------------
 Symbolic Z-matrix:
 Charge =  0 Multiplicity = 2

                         Standard orientation:
 ---------------------------------------------------------------------
 Center     Atomic      Atomic             Coordinates (Angstroms)
 Number     Number       Type             X           Y           Z
 ---------------------------------------------------------------------
      1         11           0       -0.630068   -0.250555   -1.374174
      2         11           0        1.720869   -0.448162    1.840088
      3         11           0        1.719157   -2.004748   -0.725097
      4         11           0        2.049847    0.967888   -0.789471
      5         11           0       -0.454672    2.549382   -0.325487
      6         11           0       -1.179784    0.298275    1.523573
      7         11           0       -3.225349   -1.112080   -0.149433
 ---------------------------------------------------------------------

 SCF Done:  E(UB3LYP) =  -1136.10403349     A.U. after   21 cycles

 The electronic state is 2-A.
 Alpha  occ. eigenvalues --  -38.44498 -38.44004 -38.43913 -38.43650 -38.43568
 Alpha  occ. eigenvalues --  -38.43560 -38.42712  -2.20504  -2.20007  -2.19890
 Alpha  occ. eigenvalues --   -2.19764  -2.19741  -2.19555  -2.18703  -1.14218
 Alpha  occ. eigenvalues --   -1.14191  -1.14113  -1.13805  -1.13719  -1.13670
 Alpha  occ. eigenvalues --   -1.13639  -1.13557  -1.13497  -1.13474  -1.13467
 Alpha  occ. eigenvalues --   -1.13402  -1.13399  -1.13365  -1.13282  -1.13186
 Alpha  occ. eigenvalues --   -1.13176  -1.13128  -1.12397  -1.12354  -1.12303
 Alpha  occ. eigenvalues --   -0.20308  -0.13777  -0.12386  -0.11970
 Alpha virt. eigenvalues --   -0.05641  -0.04439  -0.04196  -0.03617  -0.03025
 Alpha virt. eigenvalues --   -0.02856  -0.01365  -0.00619  -0.00341   0.00335
 Alpha virt. eigenvalues --    0.00582   0.00694   0.00723   0.00863   0.01098

  Beta  occ. eigenvalues --  -38.44422 -38.44005 -38.43855 -38.43625 -38.43549
  Beta  occ. eigenvalues --  -38.43499 -38.42706  -2.20367  -2.19908  -2.19888
  Beta  occ. eigenvalues --   -2.19708  -2.19652  -2.19523  -2.18697  -1.14125
  Beta  occ. eigenvalues --   -1.14088  -1.14018  -1.13749  -1.13665  -1.13625
  Beta  occ. eigenvalues --   -1.13565  -1.13527  -1.13493  -1.13433  -1.13419
  Beta  occ. eigenvalues --   -1.13361  -1.13336  -1.13304  -1.13211  -1.13159
  Beta  occ. eigenvalues --   -1.13124  -1.13108  -1.12393  -1.12329  -1.12296
  Beta  occ. eigenvalues --   -0.19483  -0.13640  -0.11717
  Beta virt. eigenvalues --   -0.08054  -0.05512  -0.04351  -0.03570  -0.03220
  Beta virt. eigenvalues --   -0.02185  -0.02118  -0.01290  -0.00585  -0.00037
  Beta virt. eigenvalues --    0.00366   0.00615   0.00725   0.00847   0.00947

 Mulliken charges and spin densities:
               1          2
     1  Na  -0.088833   0.126106
     2  Na   0.128156   0.293294
     3  Na  -0.113587   0.113822
     4  Na   0.252557   0.145578
     5  Na  -0.076863   0.124328
     6  Na  -0.181122   0.140626
     7  Na   0.079691   0.056247
 Sum of Mulliken charges =  -0.00000   1.00000

 Dipole moment (field-independent basis, Debye):
    X=             -0.0626    Y=             -0.2092    Z=              0.2324  Tot=              0.3189
 Quadrupole moment (field-independent basis, Debye-Ang):
   XX=            -58.8041   YY=            -70.3288   ZZ=            -66.7262
   XY=              0.1905   XZ=              0.3109   YZ=              0.9529

 Normal termination of Gaussian 16 at Mon Nov 13 16:46:40 2023.
