 Gaussian 16, Revision B.01,
 Gaussian 16:  ES64L-G16RevB.01 20-Dec-2017

 -------------------------
 #P B3LYP/6-311+g(d) force
 -------------------------

 ------------------------------
 Gaussian input prepared by ASE
 ------------------------------
 Symbolic Z-matrix:
 Charge =  0 Multiplicity = 2

                         Standard orientation:
 ---------------------------------------------------------------------
 Center     Atomic      Atomic             Coordinates (Angstroms)
 Number     Number       Type             X           Y           Z
 ---------------------------------------------------------------------
      1         11           0        0.935888   -1.545202    0.761396
      2         11           0        0.750128    1.576289    0.848886
      3         11           0        2.994771    0.176102   -0.366228
      4         11           0        0.400613   -0.222339   -1.620900
      5         11           0       -1.261545   -0.168250    1.721480
      6         11           0       -1.898140   -1.459388   -0.657961
      7         11           0       -1.921716    1.642788   -0.686673
 ---------------------------------------------------------------------

 SCF Done:  E(UB3LYP) =  -1136.08351901     A.U. after   22 cycles

 The electronic state is 2-A.
 Alpha  occ. eigenvalues --  -38.44592 -38.44419 -38.44226 -38.43537 -38.43297
 Alpha  occ. eigenvalues --  -38.43292 -38.42968  -2.20803  -2.20497  -2.20432
 Alpha  occ. eigenvalues --   -2.19648  -2.19510  -2.19320  -2.19136  -1.14616
 Alpha  occ. eigenvalues --   -1.14516  -1.14403  -1.14393  -1.14297  -1.14123
 Alpha  occ. eigenvalues --   -1.14093  -1.14043  -1.14002  -1.13325  -1.13303
 Alpha  occ. eigenvalues --   -1.13243  -1.13204  -1.13150  -1.13040  -1.13030
 Alpha  occ. eigenvalues --   -1.12967  -1.12936  -1.12836  -1.12775  -1.12685
 Alpha  occ. eigenvalues --   -0.21459  -0.14271  -0.12755  -0.11926
 Alpha virt. eigenvalues --   -0.05657  -0.04193  -0.04012  -0.03681  -0.02918
 Alpha virt. eigenvalues --   -0.02794  -0.01357  -0.00399  -0.00272   0.00297
 Alpha virt. eigenvalues --    0.00698   0.00899   0.00946   0.01038   0.01089

  Beta  occ. eigenvalues --  -38.44509 -38.44413 -38.44149 -38.43516 -38.43272
  Beta  occ. eigenvalues --  -38.43262 -38.42937  -2.20656  -2.20432  -2.20353
  Beta  occ. eigenvalues --   -2.19616  -2.19454  -2.19287  -2.19087  -1.14513
  Beta  occ. eigenvalues --   -1.14406  -1.14334  -1.14294  -1.14215  -1.14096
  Beta  occ. eigenvalues --   -1.14067  -1.13971  -1.13945  -1.13306  -1.13246
  Beta  occ. eigenvalues --   -1.13210  -1.13166  -1.13063  -1.13014  -1.13001
  Beta  occ. eigenvalues --   -1.12923  -1.12903  -1.12794  -1.12715  -1.12644
  Beta  occ. eigenvalues --   -0.20611  -0.14003  -0.11668
  Beta virt. eigenvalues --   -0.08339  -0.05578  -0.04022  -0.03427  -0.03231
  Beta virt. eigenvalues --   -0.02141  -0.01913  -0.01283  -0.00337  -0.00065
  Beta virt. eigenvalues --    0.00332   0.00750   0.00911   0.01054   0.01081

 Mulliken charges and spin densities:
               1          2
     1  Na  -0.717805   0.202551
     2  Na  -0.661272   0.173567
     3  Na   0.955649  -0.032167
     4  Na  -0.005760   0.409924
     5  Na   0.807298   0.253902
     6  Na  -0.041750  -0.035615
     7  Na  -0.336360   0.027840
 Sum of Mulliken charges =  -0.00000   1.00000

 Dipole moment (field-independent basis, Debye):
    X=              0.1737    Y=              0.1952    Z=             -0.2208  Tot=              0.3421
 Quadrupole moment (field-independent basis, Debye-Ang):
   XX=            -55.7417   YY=            -75.0959   ZZ=            -65.5716
   XY=              0.1142   XZ=              0.4518   YZ=             -1.2259

 Normal termination of Gaussian 16 at Mon Nov 13 19:35:48 2023.
