 Gaussian 16, Revision B.01,
 Gaussian 16:  ES64L-G16RevB.01 20-Dec-2017

 -------------------------
 #P B3LYP/6-311+g(d) force
 -------------------------

 ------------------------------
 Gaussian input prepared by ASE
 ------------------------------
 Symbolic Z-matrix:
 Charge =  0 Multiplicity = 2

                         Standard orientation:
 ---------------------------------------------------------------------
 Center     Atomic      Atomic             Coordinates (Angstroms)
 Number     Number       Type             X           Y           Z
 ---------------------------------------------------------------------
      1         11           0        0.613589   -0.834360   -1.381685
      2         11           0        0.503698   -0.941704    1.313920
      3         11           0        2.907772   -0.106570    0.094754
      4         11           0        0.752673    1.721385    0.059354
      5         11           0       -1.692057   -1.477590   -0.182079
      6         11           0       -1.433483    0.951208   -1.299195
      7         11           0       -1.652191    0.687630    1.394930
 ---------------------------------------------------------------------

 SCF Done:  E(UB3LYP) =  -1136.03316442     A.U. after   24 cycles

 The electronic state is 2-A.
 Alpha  occ. eigenvalues --  -38.44947 -38.44771 -38.44745 -38.44657 -38.44391
 Alpha  occ. eigenvalues --  -38.44122 -38.43024  -2.21231  -2.21104  -2.21033
 Alpha  occ. eigenvalues --   -2.20809  -2.20762  -2.20409  -2.19299  -1.15390
 Alpha  occ. eigenvalues --   -1.15152  -1.15109  -1.15046  -1.14911  -1.14854
 Alpha  occ. eigenvalues --   -1.14773  -1.14596  -1.14530  -1.14468  -1.14437
 Alpha  occ. eigenvalues --   -1.14371  -1.14330  -1.14297  -1.14205  -1.13958
 Alpha  occ. eigenvalues --   -1.13927  -1.13858  -1.13008  -1.12922  -1.12876
 Alpha  occ. eigenvalues --   -0.22525  -0.14525  -0.13331  -0.12126
 Alpha virt. eigenvalues --   -0.05860  -0.04240  -0.03896  -0.03751  -0.02841
 Alpha virt. eigenvalues --   -0.02779  -0.01243  -0.00351  -0.00172   0.00261
 Alpha virt. eigenvalues --    0.00758   0.01032   0.01055   0.01091   0.01123

  Beta  occ. eigenvalues --  -38.44884 -38.44742 -38.44712 -38.44584 -38.44328
  Beta  occ. eigenvalues --  -38.44101 -38.43003  -2.21122  -2.20995  -2.20917
  Beta  occ. eigenvalues --   -2.20797  -2.20660  -2.20380  -2.19271  -1.15334
  Beta  occ. eigenvalues --   -1.15058  -1.15002  -1.14969  -1.14839  -1.14776
  Beta  occ. eigenvalues --   -1.14702  -1.14545  -1.14464  -1.14432  -1.14378
  Beta  occ. eigenvalues --   -1.14314  -1.14276  -1.14223  -1.14104  -1.13935
  Beta  occ. eigenvalues --   -1.13858  -1.13814  -1.12996  -1.12877  -1.12822
  Beta  occ. eigenvalues --   -0.21632  -0.14277  -0.11864
  Beta virt. eigenvalues --   -0.08685  -0.05780  -0.03761  -0.03425  -0.03351
  Beta virt. eigenvalues --   -0.02088  -0.01915  -0.01184  -0.00170  -0.00077
  Beta virt. eigenvalues --    0.00302   0.00820   0.01115   0.01120   0.01136

 Mulliken charges and spin densities:
               1          2
     1  Na  -0.514264   0.211823
     2  Na  -0.282562   0.442895
     3  Na   1.068382  -0.037776
     4  Na  -0.973603   0.207546
     5  Na  -0.041658  -0.084083
     6  Na   0.544559   0.206679
     7  Na   0.199147   0.052916
 Sum of Mulliken charges =  -0.00000   1.00000

 Dipole moment (field-independent basis, Debye):
    X=              0.4495    Y=              0.2229    Z=              0.1391  Tot=              0.5206
 Quadrupole moment (field-independent basis, Debye-Ang):
   XX=            -57.0551   YY=            -76.7829   ZZ=            -64.6057
   XY=              0.0799   XZ=              0.0200   YZ=              0.6952

 Normal termination of Gaussian 16 at Mon Nov 13 20:04:54 2023.
