 Gaussian 16, Revision B.01,
 Gaussian 16:  ES64L-G16RevB.01 20-Dec-2017

 -------------------------
 #P B3LYP/6-311+g(d) force
 -------------------------

 ------------------------------
 Gaussian input prepared by ASE
 ------------------------------
 Symbolic Z-matrix:
 Charge =  0 Multiplicity = 2

                         Standard orientation:
 ---------------------------------------------------------------------
 Center     Atomic      Atomic             Coordinates (Angstroms)
 Number     Number       Type             X           Y           Z
 ---------------------------------------------------------------------
      1         11           0       -2.313580   -0.725284    1.648786
      2         11           0       -2.338683    1.720159   -0.079853
      3         11           0       -2.355335   -0.997665   -1.335192
      4         11           0        0.120033   -0.002308    0.042706
      5         11           0        1.965006    2.263863   -0.659209
      6         11           0        2.949876    0.002729    1.041944
      7         11           0        1.972683   -2.261494   -0.659182
 ---------------------------------------------------------------------

 SCF Done:  E(UB3LYP) =  -1136.09578663     A.U. after   23 cycles

 The electronic state is 2-A.
 Alpha  occ. eigenvalues --  -38.44632 -38.44557 -38.44366 -38.44150 -38.43604
 Alpha  occ. eigenvalues --  -38.43457 -38.42960  -2.20610  -2.20536  -2.20363
 Alpha  occ. eigenvalues --   -2.20156  -2.19489  -2.19344  -2.19262  -1.14363
 Alpha  occ. eigenvalues --   -1.14332  -1.14255  -1.14253  -1.14223  -1.14175
 Alpha  occ. eigenvalues --   -1.14073  -1.14023  -1.13934  -1.13839  -1.13742
 Alpha  occ. eigenvalues --   -1.13732  -1.13245  -1.13137  -1.13130  -1.13106
 Alpha  occ. eigenvalues --   -1.12998  -1.12962  -1.12944  -1.12911  -1.12813
 Alpha  occ. eigenvalues --   -0.19384  -0.15153  -0.11351  -0.10495
 Alpha virt. eigenvalues --   -0.06225  -0.05870  -0.04703  -0.03200  -0.02226
 Alpha virt. eigenvalues --   -0.02013  -0.01770  -0.00979  -0.00534  -0.00041
 Alpha virt. eigenvalues --    0.00146   0.00308   0.00518   0.00626   0.00714

  Beta  occ. eigenvalues --  -38.44625 -38.44536 -38.44316 -38.44076 -38.43607
  Beta  occ. eigenvalues --  -38.43460 -38.42928  -2.20594  -2.20504  -2.20273
  Beta  occ. eigenvalues --   -2.20021  -2.19494  -2.19350  -2.19216  -1.14345
  Beta  occ. eigenvalues --   -1.14317  -1.14253  -1.14237  -1.14174  -1.14121
  Beta  occ. eigenvalues --   -1.14020  -1.13935  -1.13875  -1.13748  -1.13650
  Beta  occ. eigenvalues --   -1.13632  -1.13245  -1.13133  -1.13124  -1.13109
  Beta  occ. eigenvalues --   -1.12991  -1.12964  -1.12905  -1.12817  -1.12792
  Beta  occ. eigenvalues --   -0.18671  -0.14968  -0.11192
  Beta virt. eigenvalues --   -0.06588  -0.05927  -0.05770  -0.04082  -0.03078
  Beta virt. eigenvalues --   -0.02084  -0.01563  -0.01025  -0.00878  -0.00145
  Beta virt. eigenvalues --    0.00093   0.00217   0.00394   0.00629   0.00760

 Mulliken charges and spin densities:
               1          2
     1  Na   0.151778   0.155316
     2  Na   0.250410   0.164159
     3  Na   0.380893   0.037919
     4  Na  -2.111542   0.960623
     5  Na   0.444882  -0.151373
     6  Na   0.362994  -0.131355
     7  Na   0.520585  -0.035289
 Sum of Mulliken charges =  -0.00000   1.00000

 Dipole moment (field-independent basis, Debye):
    X=             -0.1171    Y=             -0.0358    Z=             -0.1075  Tot=              0.1629
 Quadrupole moment (field-independent basis, Debye-Ang):
   XX=            -51.5812   YY=            -70.3755   ZZ=            -71.2882
   XY=             -0.5881   XZ=              2.1299   YZ=              0.0161

 Normal termination of Gaussian 16 at Mon Nov 13 20:13:45 2023.
