 Gaussian 16, Revision B.01,
 Gaussian 16:  ES64L-G16RevB.01 20-Dec-2017

 -------------------------
 #P B3LYP/6-311+g(d) force
 -------------------------

 ------------------------------
 Gaussian input prepared by ASE
 ------------------------------
 Symbolic Z-matrix:
 Charge =  0 Multiplicity = 2

                         Standard orientation:
 ---------------------------------------------------------------------
 Center     Atomic      Atomic             Coordinates (Angstroms)
 Number     Number       Type             X           Y           Z
 ---------------------------------------------------------------------
      1         11           0       -2.247186    0.645062    1.003322
      2         11           0       -1.045039    2.688929   -0.836929
      3         11           0       -4.293574   -1.199951   -0.185704
      4         11           0       -1.372560   -1.759409   -0.562111
      5         11           0        0.610160    0.381109    0.137919
      6         11           0        3.275109   -0.163537    1.403194
      7         11           0        5.073091   -0.592202   -0.959691
 ---------------------------------------------------------------------

 SCF Done:  E(UB3LYP) =  -1136.09727486     A.U. after   23 cycles

 The electronic state is 2-A.
 Alpha  occ. eigenvalues --  -38.44442 -38.44422 -38.44197 -38.44078 -38.43447
 Alpha  occ. eigenvalues --  -38.43354 -38.43229  -2.20294  -2.20292  -2.20260
 Alpha  occ. eigenvalues --   -2.20074  -2.19364  -2.19323  -2.19265  -1.14085
 Alpha  occ. eigenvalues --   -1.14076  -1.14005  -1.13983  -1.13953  -1.13928
 Alpha  occ. eigenvalues --   -1.13894  -1.13889  -1.13810  -1.13769  -1.13696
 Alpha  occ. eigenvalues --   -1.13693  -1.13118  -1.13023  -1.13009  -1.12981
 Alpha  occ. eigenvalues --   -1.12961  -1.12935  -1.12908  -1.12878  -1.12840
 Alpha  occ. eigenvalues --   -0.18559  -0.14466  -0.11981  -0.10674
 Alpha virt. eigenvalues --   -0.06684  -0.05427  -0.03795  -0.03472  -0.03217
 Alpha virt. eigenvalues --   -0.02011  -0.01720  -0.01234  -0.00811  -0.00651
 Alpha virt. eigenvalues --   -0.00037   0.00154   0.00469   0.00691   0.00800

  Beta  occ. eigenvalues --  -38.44429 -38.44394 -38.44168 -38.44026 -38.43416
  Beta  occ. eigenvalues --  -38.43335 -38.43186  -2.20310  -2.20245  -2.20172
  Beta  occ. eigenvalues --   -2.19983  -2.19306  -2.19249  -2.19230  -1.14050
  Beta  occ. eigenvalues --   -1.14035  -1.14006  -1.13936  -1.13931  -1.13909
  Beta  occ. eigenvalues --   -1.13835  -1.13830  -1.13774  -1.13686  -1.13640
  Beta  occ. eigenvalues --   -1.13624  -1.13083  -1.12971  -1.12955  -1.12940
  Beta  occ. eigenvalues --   -1.12915  -1.12906  -1.12882  -1.12850  -1.12774
  Beta  occ. eigenvalues --   -0.17866  -0.14121  -0.11679
  Beta virt. eigenvalues --   -0.07083  -0.06282  -0.05134  -0.03626  -0.03069
  Beta virt. eigenvalues --   -0.02801  -0.01895  -0.01379  -0.01005  -0.00539
  Beta virt. eigenvalues --   -0.00267   0.00102   0.00367   0.00539   0.00733

 Mulliken charges and spin densities:
               1          2
     1  Na   0.730252   0.579510
     2  Na   1.483920   0.210464
     3  Na   0.279576   0.154758
     4  Na   0.466242  -0.031096
     5  Na  -2.568741  -0.012451
     6  Na  -0.288141  -0.089680
     7  Na  -0.103108   0.188495
 Sum of Mulliken charges =  -0.00000   1.00000

 Dipole moment (field-independent basis, Debye):
    X=              0.2931    Y=             -0.0553    Z=             -0.6432  Tot=              0.7089
 Quadrupole moment (field-independent basis, Debye-Ang):
   XX=            -67.1537   YY=            -73.2946   ZZ=            -60.5370
   XY=             -0.8321   XZ=             -2.4835   YZ=              1.0316

 Normal termination of Gaussian 16 at Mon Nov 13 15:25:35 2023.
