 Gaussian 16, Revision B.01,
 Gaussian 16:  ES64L-G16RevB.01 20-Dec-2017

 -------------------------
 #P B3LYP/6-311+g(d) force
 -------------------------

 ------------------------------
 Gaussian input prepared by ASE
 ------------------------------
 Symbolic Z-matrix:
 Charge =  0 Multiplicity = 2

                         Standard orientation:
 ---------------------------------------------------------------------
 Center     Atomic      Atomic             Coordinates (Angstroms)
 Number     Number       Type             X           Y           Z
 ---------------------------------------------------------------------
      1         11           0        0.449563    0.000069   -1.468058
      2         11           0       -1.312015   -1.892870    0.070920
      3         11           0       -3.636072   -0.000429   -0.079277
      4         11           0       -1.313119    1.891516    0.070546
      5         11           0        0.538903   -0.000620    1.501325
      6         11           0        2.638753   -1.488722   -0.048370
      7         11           0        2.633987    1.491057   -0.047085
 ---------------------------------------------------------------------

 SCF Done:  E(UB3LYP) =  -1136.09716380     A.U. after   27 cycles

 The electronic state is 2-A.
 Alpha  occ. eigenvalues --  -38.45994 -38.44284 -38.44278 -38.43618 -38.43173
 Alpha  occ. eigenvalues --  -38.43069 -38.43067  -2.21865  -2.20282  -2.20259
 Alpha  occ. eigenvalues --   -2.19805  -2.19376  -2.19060  -2.19057  -1.15549
 Alpha  occ. eigenvalues --   -1.15537  -1.15495  -1.14160  -1.13962  -1.13942
 Alpha  occ. eigenvalues --   -1.13936  -1.13913  -1.13792  -1.13592  -1.13424
 Alpha  occ. eigenvalues --   -1.13405  -1.13105  -1.13003  -1.12999  -1.12751
 Alpha  occ. eigenvalues --   -1.12744  -1.12698  -1.12692  -1.12667  -1.12653
 Alpha  occ. eigenvalues --   -0.20294  -0.14953  -0.11524  -0.10638
 Alpha virt. eigenvalues --   -0.07351  -0.05180  -0.03828  -0.03118  -0.02793
 Alpha virt. eigenvalues --   -0.01852  -0.01696  -0.01202  -0.00222  -0.00075
 Alpha virt. eigenvalues --    0.00194   0.00281   0.00719   0.00762   0.00874

  Beta  occ. eigenvalues --  -38.45999 -38.44269 -38.44263 -38.43551 -38.43088
  Beta  occ. eigenvalues --  -38.43057 -38.43056  -2.21875  -2.20261  -2.20238
  Beta  occ. eigenvalues --   -2.19685  -2.19221  -2.19044  -2.19041  -1.15562
  Beta  occ. eigenvalues --   -1.15544  -1.15488  -1.14148  -1.13933  -1.13931
  Beta  occ. eigenvalues --   -1.13890  -1.13851  -1.13781  -1.13502  -1.13340
  Beta  occ. eigenvalues --   -1.13322  -1.13007  -1.12903  -1.12899  -1.12731
  Beta  occ. eigenvalues --   -1.12720  -1.12664  -1.12653  -1.12639  -1.12626
  Beta  occ. eigenvalues --   -0.19551  -0.14667  -0.11227
  Beta virt. eigenvalues --   -0.07252  -0.06608  -0.05194  -0.03134  -0.02946
  Beta virt. eigenvalues --   -0.02689  -0.01181  -0.01136  -0.00737  -0.00196
  Beta virt. eigenvalues --    0.00143   0.00248   0.00248   0.00793   0.00879

 Mulliken charges and spin densities:
               1          2
     1  Na  -0.736111   0.272521
     2  Na   0.264473   0.096173
     3  Na  -0.196869  -0.054023
     4  Na   0.264367   0.096480
     5  Na  -0.591071   0.363932
     6  Na   0.497269   0.111989
     7  Na   0.497942   0.112929
 Sum of Mulliken charges =  -0.00000   1.00000

 Dipole moment (field-independent basis, Debye):
    X=             -0.5737    Y=             -0.0014    Z=              0.0732  Tot=              0.5784
 Quadrupole moment (field-independent basis, Debye-Ang):
   XX=            -40.9430   YY=            -73.5361   ZZ=            -75.8677
   XY=             -0.0036   XZ=              0.2867   YZ=              0.0032

 Normal termination of Gaussian 16 at Mon Nov 13 17:46:57 2023.
