 Gaussian 16, Revision B.01,
 Gaussian 16:  ES64L-G16RevB.01 20-Dec-2017

 -------------------------
 #P B3LYP/6-311+g(d) force
 -------------------------

 ------------------------------
 Gaussian input prepared by ASE
 ------------------------------
 Symbolic Z-matrix:
 Charge =  0 Multiplicity = 2

                         Standard orientation:
 ---------------------------------------------------------------------
 Center     Atomic      Atomic             Coordinates (Angstroms)
 Number     Number       Type             X           Y           Z
 ---------------------------------------------------------------------
      1         11           0        0.404336   -1.314027   -0.773907
      2         11           0        0.868500    1.652292   -0.628506
      3         11           0        3.193430   -0.227074   -0.771259
      4         11           0        1.531444   -0.097677    1.717198
      5         11           0       -1.390012   -0.784372    1.573103
      6         11           0       -2.059173    1.727356    0.067061
      7         11           0       -2.548525   -0.956499   -1.183691
 ---------------------------------------------------------------------

 SCF Done:  E(UB3LYP) =  -1136.09629024     A.U. after   26 cycles

 The electronic state is 2-A.
 Alpha  occ. eigenvalues --  -38.45071 -38.44584 -38.44368 -38.43713 -38.43334
 Alpha  occ. eigenvalues --  -38.43138 -38.42747  -2.21058  -2.20576  -2.20457
 Alpha  occ. eigenvalues --   -2.19807  -2.19505  -2.19130  -2.18819  -1.14789
 Alpha  occ. eigenvalues --   -1.14726  -1.14672  -1.14299  -1.14254  -1.14220
 Alpha  occ. eigenvalues --   -1.14179  -1.14102  -1.14038  -1.13536  -1.13463
 Alpha  occ. eigenvalues --   -1.13423  -1.13208  -1.13136  -1.13112  -1.12834
 Alpha  occ. eigenvalues --   -1.12784  -1.12775  -1.12511  -1.12462  -1.12411
 Alpha  occ. eigenvalues --   -0.20635  -0.14937  -0.12198  -0.11168
 Alpha virt. eigenvalues --   -0.06443  -0.04994  -0.04314  -0.03405  -0.02389
 Alpha virt. eigenvalues --   -0.02308  -0.02041  -0.00750  -0.00229   0.00219
 Alpha virt. eigenvalues --    0.00343   0.00528   0.00758   0.00874   0.00940

  Beta  occ. eigenvalues --  -38.45052 -38.44545 -38.44301 -38.43663 -38.43295
  Beta  occ. eigenvalues --  -38.43132 -38.42735  -2.21023  -2.20504  -2.20338
  Beta  occ. eigenvalues --   -2.19722  -2.19439  -2.19122  -2.18801  -1.14768
  Beta  occ. eigenvalues --   -1.14683  -1.14650  -1.14257  -1.14193  -1.14138
  Beta  occ. eigenvalues --   -1.14128  -1.14002  -1.13953  -1.13485  -1.13398
  Beta  occ. eigenvalues --   -1.13329  -1.13164  -1.13086  -1.13034  -1.12831
  Beta  occ. eigenvalues --   -1.12785  -1.12738  -1.12506  -1.12419  -1.12392
  Beta  occ. eigenvalues --   -0.19819  -0.14724  -0.10931
  Beta virt. eigenvalues --   -0.07974  -0.06271  -0.04375  -0.04157  -0.02987
  Beta virt. eigenvalues --   -0.01953  -0.01717  -0.01594  -0.00329  -0.00197
  Beta virt. eigenvalues --    0.00260   0.00454   0.00649   0.00793   0.00944

 Mulliken charges and spin densities:
               1          2
     1  Na  -0.984858   0.372264
     2  Na  -1.141826   0.189224
     3  Na   2.406961   0.011264
     4  Na  -0.384887   0.064839
     5  Na   0.049071   0.275278
     6  Na  -0.156447   0.068149
     7  Na   0.211986   0.018983
 Sum of Mulliken charges =  -0.00000   1.00000

 Dipole moment (field-independent basis, Debye):
    X=              0.5925    Y=             -0.2250    Z=             -0.1588  Tot=              0.6533
 Quadrupole moment (field-independent basis, Debye-Ang):
   XX=            -48.7250   YY=            -80.4133   ZZ=            -65.7969
   XY=              0.0170   XZ=             -0.1186   YZ=              3.1831

 Normal termination of Gaussian 16 at Mon Nov 13 18:06:09 2023.
