 Gaussian 16, Revision B.01,
 Gaussian 16:  ES64L-G16RevB.01 20-Dec-2017

 -------------------------
 #P B3LYP/6-311+g(d) force
 -------------------------

 ------------------------------
 Gaussian input prepared by ASE
 ------------------------------
 Symbolic Z-matrix:
 Charge =  0 Multiplicity = 2

                         Standard orientation:
 ---------------------------------------------------------------------
 Center     Atomic      Atomic             Coordinates (Angstroms)
 Number     Number       Type             X           Y           Z
 ---------------------------------------------------------------------
      1         11           0        0.680294    0.397323   -1.143522
      2         11           0        1.470799   -2.496997   -1.108442
      3         11           0        3.116050    1.252841    0.388881
      4         11           0        1.352848   -0.932563    1.448273
      5         11           0       -1.189714    2.677653   -0.584046
      6         11           0       -1.418952    0.132093    0.983289
      7         11           0       -4.011324   -1.030349    0.015568
 ---------------------------------------------------------------------

 SCF Done:  E(UB3LYP) =  -1136.09320560     A.U. after   23 cycles

 The electronic state is 2-A.
 Alpha  occ. eigenvalues --  -38.45455 -38.45322 -38.43813 -38.43632 -38.43554
 Alpha  occ. eigenvalues --  -38.43550 -38.43015  -2.21227  -2.21203  -2.19889
 Alpha  occ. eigenvalues --   -2.19601  -2.19552  -2.19447  -2.19210  -1.14926
 Alpha  occ. eigenvalues --   -1.14920  -1.14875  -1.14872  -1.14865  -1.14792
 Alpha  occ. eigenvalues --   -1.13679  -1.13586  -1.13514  -1.13387  -1.13280
 Alpha  occ. eigenvalues --   -1.13270  -1.13224  -1.13162  -1.13150  -1.13143
 Alpha  occ. eigenvalues --   -1.13057  -1.13028  -1.12884  -1.12850  -1.12751
 Alpha  occ. eigenvalues --   -0.19272  -0.13785  -0.11785  -0.10865
 Alpha virt. eigenvalues --   -0.07322  -0.04988  -0.03466  -0.03243  -0.02916
 Alpha virt. eigenvalues --   -0.02412  -0.01957  -0.01058  -0.00348  -0.00226
 Alpha virt. eigenvalues --   -0.00029   0.00193   0.00413   0.00612   0.00988

  Beta  occ. eigenvalues --  -38.45463 -38.45284 -38.43767 -38.43577 -38.43538
  Beta  occ. eigenvalues --  -38.43530 -38.42965  -2.21243  -2.21136  -2.19809
  Beta  occ. eigenvalues --   -2.19566  -2.19453  -2.19420  -2.19125  -1.14935
  Beta  occ. eigenvalues --   -1.14884  -1.14879  -1.14876  -1.14797  -1.14751
  Beta  occ. eigenvalues --   -1.13633  -1.13522  -1.13437  -1.13351  -1.13257
  Beta  occ. eigenvalues --   -1.13194  -1.13189  -1.13111  -1.13092  -1.13079
  Beta  occ. eigenvalues --   -1.13037  -1.13009  -1.12826  -1.12779  -1.12679
  Beta  occ. eigenvalues --   -0.18597  -0.13553  -0.11452
  Beta virt. eigenvalues --   -0.07284  -0.06782  -0.04828  -0.03163  -0.03002
  Beta virt. eigenvalues --   -0.02628  -0.01941  -0.01098  -0.00829  -0.00227
  Beta virt. eigenvalues --   -0.00049   0.00044   0.00243   0.00523   0.00643

 Mulliken charges and spin densities:
               1          2
     1  Na  -1.076384   0.195242
     2  Na   0.106299   0.167342
     3  Na   0.302623   0.222500
     4  Na   0.126390   0.263223
     5  Na   0.382467   0.036737
     6  Na   0.084246   0.063180
     7  Na   0.074360   0.051777
 Sum of Mulliken charges =  -0.00000   1.00000

 Dipole moment (field-independent basis, Debye):
    X=             -0.2335    Y=              0.0589    Z=             -0.4473  Tot=              0.5080
 Quadrupole moment (field-independent basis, Debye-Ang):
   XX=            -49.8986   YY=            -66.9575   ZZ=            -73.5146
   XY=              1.9661   XZ=              2.3094   YZ=              1.7809

 Normal termination of Gaussian 16 at Mon Nov 13 18:29:54 2023.
