 Gaussian 16, Revision B.01,
 Gaussian 16:  ES64L-G16RevB.01 20-Dec-2017

 -------------------------
 #P B3LYP/6-311+g(d) force
 -------------------------

 ------------------------------
 Gaussian input prepared by ASE
 ------------------------------
 Symbolic Z-matrix:
 Charge =  0 Multiplicity = 2

                         Standard orientation:
 ---------------------------------------------------------------------
 Center     Atomic      Atomic             Coordinates (Angstroms)
 Number     Number       Type             X           Y           Z
 ---------------------------------------------------------------------
      1         11           0        2.422719   -0.040105   -0.598725
      2         11           0       -4.000238   -1.224623    0.783262
      3         11           0        2.488398   -2.339206    1.323735
      4         11           0        0.312174   -2.168169   -0.725522
      5         11           0       -1.804778   -0.045637   -0.885015
      6         11           0        0.336107    2.042215   -1.172401
      7         11           0        0.245618    3.775524    1.274666
 ---------------------------------------------------------------------

 SCF Done:  E(UB3LYP) =  -1136.10436366     A.U. after   21 cycles

 The electronic state is 2-A.
 Alpha  occ. eigenvalues --  -38.44747 -38.44714 -38.44289 -38.44251 -38.44069
 Alpha  occ. eigenvalues --  -38.43277 -38.43265  -2.20720  -2.20690  -2.20116
 Alpha  occ. eigenvalues --   -2.20064  -2.19984  -2.19262  -2.19249  -1.14526
 Alpha  occ. eigenvalues --   -1.14444  -1.14391  -1.14380  -1.14334  -1.14242
 Alpha  occ. eigenvalues --   -1.13798  -1.13762  -1.13744  -1.13738  -1.13702
 Alpha  occ. eigenvalues --   -1.13688  -1.13630  -1.13628  -1.13588  -1.13056
 Alpha  occ. eigenvalues --   -1.12959  -1.12922  -1.12898  -1.12866  -1.12793
 Alpha  occ. eigenvalues --   -0.18401  -0.13764  -0.12945  -0.10626
 Alpha virt. eigenvalues --   -0.06478  -0.05142  -0.04507  -0.03649  -0.03107
 Alpha virt. eigenvalues --   -0.02051  -0.01455  -0.01223  -0.00777  -0.00452
 Alpha virt. eigenvalues --   -0.00013   0.00202   0.00339   0.00528   0.00660

  Beta  occ. eigenvalues --  -38.44737 -38.44701 -38.44219 -38.44216 -38.44028
  Beta  occ. eigenvalues --  -38.43258 -38.43245  -2.20707  -2.20673  -2.19999
  Beta  occ. eigenvalues --   -2.19986  -2.19907  -2.19235  -2.19222  -1.14522
  Beta  occ. eigenvalues --   -1.14401  -1.14363  -1.14341  -1.14324  -1.14231
  Beta  occ. eigenvalues --   -1.13720  -1.13716  -1.13656  -1.13654  -1.13648
  Beta  occ. eigenvalues --   -1.13644  -1.13584  -1.13576  -1.13536  -1.13035
  Beta  occ. eigenvalues --   -1.12933  -1.12906  -1.12852  -1.12828  -1.12740
  Beta  occ. eigenvalues --   -0.17740  -0.13324  -0.12599
  Beta virt. eigenvalues --   -0.07200  -0.06115  -0.04702  -0.04359  -0.03375
  Beta virt. eigenvalues --   -0.02899  -0.01381  -0.01327  -0.01096  -0.00547
  Beta virt. eigenvalues --   -0.00172   0.00210   0.00336   0.00505   0.00593

 Mulliken charges and spin densities:
               1          2
     1  Na  -0.439212   0.222981
     2  Na   0.350517   0.123904
     3  Na   0.204836   0.201528
     4  Na  -0.046388   0.104872
     5  Na  -0.783631   0.231672
     6  Na   1.041865  -0.288072
     7  Na  -0.327987   0.403116
 Sum of Mulliken charges =  -0.00000   1.00000

 Dipole moment (field-independent basis, Debye):
    X=              0.4986    Y=             -0.6680    Z=              0.6891  Tot=              1.0815
 Quadrupole moment (field-independent basis, Debye-Ang):
   XX=            -63.5712   YY=            -67.2028   ZZ=            -67.1396
   XY=              0.1409   XZ=             -2.2117   YZ=              0.1681

 Normal termination of Gaussian 16 at Mon Nov 13 15:24:02 2023.
