 Gaussian 16, Revision B.01,
 Gaussian 16:  ES64L-G16RevB.01 20-Dec-2017

 -------------------------
 #P B3LYP/6-311+g(d) force
 -------------------------

 ------------------------------
 Gaussian input prepared by ASE
 ------------------------------
 Symbolic Z-matrix:
 Charge =  0 Multiplicity = 2

                         Standard orientation:
 ---------------------------------------------------------------------
 Center     Atomic      Atomic             Coordinates (Angstroms)
 Number     Number       Type             X           Y           Z
 ---------------------------------------------------------------------
      1         11           0       -1.103110   -0.888714    2.140591
      2         11           0       -1.242008    2.313021   -0.227153
      3         11           0       -3.047004   -0.067839    0.010932
      4         11           0       -1.095958   -1.257236   -1.926823
      5         11           0        3.040220    2.039892    0.000956
      6         11           0        0.769410    0.086080    0.003216
      7         11           0        2.678450   -2.225203   -0.001720
 ---------------------------------------------------------------------

 SCF Done:  E(UB3LYP) =  -1136.10508560     A.U. after   22 cycles

 The electronic state is 2-A.
 Alpha  occ. eigenvalues --  -38.44541 -38.44399 -38.44394 -38.44308 -38.44304
 Alpha  occ. eigenvalues --  -38.43623 -38.42521  -2.20469  -2.20402  -2.20228
 Alpha  occ. eigenvalues --   -2.20188  -2.20097  -2.19524  -2.18730  -1.14234
 Alpha  occ. eigenvalues --   -1.14172  -1.14140  -1.14079  -1.14029  -1.13964
 Alpha  occ. eigenvalues --   -1.13935  -1.13902  -1.13843  -1.13823  -1.13814
 Alpha  occ. eigenvalues --   -1.13807  -1.13789  -1.13758  -1.13711  -1.13259
 Alpha  occ. eigenvalues --   -1.13158  -1.13144  -1.12447  -1.12401  -1.12329
 Alpha  occ. eigenvalues --   -0.19204  -0.13554  -0.11509  -0.11422
 Alpha virt. eigenvalues --   -0.06137  -0.05875  -0.03593  -0.03433  -0.02651
 Alpha virt. eigenvalues --   -0.02369  -0.01950  -0.01314  -0.00281  -0.00099
 Alpha virt. eigenvalues --    0.00167   0.00229   0.00644   0.00717   0.00789

  Beta  occ. eigenvalues --  -38.44439 -38.44403 -38.44379 -38.44320 -38.44221
  Beta  occ. eigenvalues --  -38.43610 -38.42501  -2.20377  -2.20279  -2.20206
  Beta  occ. eigenvalues --   -2.20120  -2.20076  -2.19504  -2.18700  -1.14156
  Beta  occ. eigenvalues --   -1.14075  -1.14068  -1.14029  -1.13914  -1.13903
  Beta  occ. eigenvalues --   -1.13868  -1.13848  -1.13839  -1.13822  -1.13820
  Beta  occ. eigenvalues --   -1.13771  -1.13732  -1.13728  -1.13674  -1.13248
  Beta  occ. eigenvalues --   -1.13139  -1.13114  -1.12396  -1.12360  -1.12319
  Beta  occ. eigenvalues --   -0.18365  -0.13403  -0.11263
  Beta virt. eigenvalues --   -0.07323  -0.05932  -0.05824  -0.03305  -0.02720
  Beta virt. eigenvalues --   -0.02094  -0.01746  -0.01642  -0.01277  -0.00090
  Beta virt. eigenvalues --    0.00000   0.00193   0.00289   0.00753   0.00778

 Mulliken charges and spin densities:
               1          2
     1  Na   0.396789   0.403002
     2  Na   0.202846   0.221333
     3  Na   0.809416   0.166236
     4  Na   0.365439   0.418730
     5  Na   0.420500  -0.280010
     6  Na  -2.317756   0.117196
     7  Na   0.122765  -0.046486
 Sum of Mulliken charges =  -0.00000   1.00000

 Dipole moment (field-independent basis, Debye):
    X=              0.2011    Y=             -0.3947    Z=              0.0476  Tot=              0.4455
 Quadrupole moment (field-independent basis, Debye-Ang):
   XX=            -52.1741   YY=            -69.2828   ZZ=            -70.0468
   XY=             -1.3769   XZ=              0.4422   YZ=             -0.1460

 Normal termination of Gaussian 16 at Mon Nov 13 18:37:30 2023.
