 Gaussian 16, Revision B.01,
 Gaussian 16:  ES64L-G16RevB.01 20-Dec-2017

 -------------------------
 #P B3LYP/6-311+g(d) force
 -------------------------

 ------------------------------
 Gaussian input prepared by ASE
 ------------------------------
 Symbolic Z-matrix:
 Charge =  0 Multiplicity = 2

                         Standard orientation:
 ---------------------------------------------------------------------
 Center     Atomic      Atomic             Coordinates (Angstroms)
 Number     Number       Type             X           Y           Z
 ---------------------------------------------------------------------
      1         11           0        0.292013    0.191640    1.515873
      2         11           0        2.415138   -1.251379    0.761072
      3         11           0       -3.704629   -0.470326    0.280046
      4         11           0       -1.159955    0.389315   -0.721721
      5         11           0        0.074542   -2.014269   -0.715747
      6         11           0        0.371053    2.666528    0.082527
      7         11           0        1.711839    0.488491   -1.202049
 ---------------------------------------------------------------------

 SCF Done:  E(UB3LYP) =  -1136.06919825     A.U. after   26 cycles

 The electronic state is 2-A.
 Alpha  occ. eigenvalues --  -38.44942 -38.44507 -38.44271 -38.43846 -38.43719
 Alpha  occ. eigenvalues --  -38.43494 -38.43134  -2.20760  -2.20643  -2.20545
 Alpha  occ. eigenvalues --   -2.20108  -2.19873  -2.19803  -2.19188  -1.14705
 Alpha  occ. eigenvalues --   -1.14542  -1.14503  -1.14395  -1.14390  -1.14378
 Alpha  occ. eigenvalues --   -1.14249  -1.14128  -1.13982  -1.13942  -1.13813
 Alpha  occ. eigenvalues --   -1.13703  -1.13668  -1.13471  -1.13429  -1.13402
 Alpha  occ. eigenvalues --   -1.13360  -1.13257  -1.12860  -1.12803  -1.12766
 Alpha  occ. eigenvalues --   -0.21054  -0.13627  -0.12697  -0.11616
 Alpha virt. eigenvalues --   -0.06393  -0.04204  -0.03634  -0.03344  -0.02660
 Alpha virt. eigenvalues --   -0.02323  -0.01914  -0.00720  -0.00252   0.00242
 Alpha virt. eigenvalues --    0.00440   0.00559   0.00822   0.00893   0.01037

  Beta  occ. eigenvalues --  -38.44945 -38.44477 -38.44192 -38.43788 -38.43686
  Beta  occ. eigenvalues --  -38.43455 -38.43126  -2.20767  -2.20582  -2.20414
  Beta  occ. eigenvalues --   -2.20010  -2.19815  -2.19746  -2.19178  -1.14644
  Beta  occ. eigenvalues --   -1.14523  -1.14433  -1.14392  -1.14384  -1.14326
  Beta  occ. eigenvalues --   -1.14204  -1.14040  -1.13901  -1.13865  -1.13758
  Beta  occ. eigenvalues --   -1.13625  -1.13587  -1.13426  -1.13392  -1.13324
  Beta  occ. eigenvalues --   -1.13261  -1.13217  -1.12853  -1.12769  -1.12751
  Beta  occ. eigenvalues --   -0.20199  -0.13421  -0.12419
  Beta virt. eigenvalues --   -0.07235  -0.06285  -0.04200  -0.03607  -0.02665
  Beta virt. eigenvalues --   -0.01951  -0.01895  -0.01097  -0.00676   0.00010
  Beta virt. eigenvalues --    0.00277   0.00427   0.00610   0.00894   0.00973

 Mulliken charges and spin densities:
               1          2
     1  Na  -0.399789   0.502266
     2  Na   0.913154   0.018780
     3  Na   0.061475  -0.213044
     4  Na  -0.379647   0.527619
     5  Na  -0.832366   0.071938
     6  Na  -0.061818  -0.146303
     7  Na   0.698990   0.238745
 Sum of Mulliken charges =  -0.00000   1.00000

 Dipole moment (field-independent basis, Debye):
    X=             -0.5025    Y=             -0.1386    Z=              0.2092  Tot=              0.5617
 Quadrupole moment (field-independent basis, Debye-Ang):
   XX=            -53.3323   YY=            -67.4350   ZZ=            -71.4150
   XY=              0.3088   XZ=             -1.8258   YZ=             -0.0246

 Normal termination of Gaussian 16 at Mon Nov 13 19:47:44 2023.
