 Gaussian 16, Revision B.01,
 Gaussian 16:  ES64L-G16RevB.01 20-Dec-2017

 -------------------------
 #P B3LYP/6-311+g(d) force
 -------------------------

 ------------------------------
 Gaussian input prepared by ASE
 ------------------------------
 Symbolic Z-matrix:
 Charge =  0 Multiplicity = 2

                         Standard orientation:
 ---------------------------------------------------------------------
 Center     Atomic      Atomic             Coordinates (Angstroms)
 Number     Number       Type             X           Y           Z
 ---------------------------------------------------------------------
      1         11           0       -0.656596   -1.541260    0.128729
      2         11           0       -0.659417    1.543650    0.097664
      3         11           0       -2.735933   -0.002309    0.014766
      4         11           0        0.325046    0.021362    2.005252
      5         11           0        1.876890    1.317026   -0.151444
      6         11           0       -0.029834   -0.019302   -1.968907
      7         11           0        1.879844   -1.319166   -0.126060
 ---------------------------------------------------------------------

 SCF Done:  E(UB3LYP) =  -1136.02342439     A.U. after   29 cycles

 The electronic state is 2-A.
 Alpha  occ. eigenvalues --  -38.45603 -38.45594 -38.45062 -38.45055 -38.44736
 Alpha  occ. eigenvalues --  -38.43080 -38.42907  -2.22113  -2.22084  -2.21356
 Alpha  occ. eigenvalues --   -2.21263  -2.20832  -2.19323  -2.19163  -1.16241
 Alpha  occ. eigenvalues --   -1.16169  -1.16009  -1.15734  -1.15688  -1.15659
 Alpha  occ. eigenvalues --   -1.15386  -1.14973  -1.14895  -1.14854  -1.14738
 Alpha  occ. eigenvalues --   -1.14623  -1.14454  -1.14437  -1.14295  -1.13065
 Alpha  occ. eigenvalues --   -1.12993  -1.12919  -1.12834  -1.12816  -1.12663
 Alpha  occ. eigenvalues --   -0.22518  -0.14104  -0.13596  -0.12321
 Alpha virt. eigenvalues --   -0.05435  -0.04297  -0.04241  -0.03499  -0.03215
 Alpha virt. eigenvalues --   -0.02636  -0.01102  -0.00357  -0.00154   0.00287
 Alpha virt. eigenvalues --    0.00822   0.00925   0.01077   0.01161   0.01345

  Beta  occ. eigenvalues --  -38.45515 -38.45506 -38.45007 -38.45000 -38.44730
  Beta  occ. eigenvalues --  -38.43064 -38.42890  -2.21960  -2.21929  -2.21261
  Beta  occ. eigenvalues --   -2.21168  -2.20823  -2.19303  -2.19141  -1.16111
  Beta  occ. eigenvalues --   -1.16036  -1.15921  -1.15624  -1.15578  -1.15554
  Beta  occ. eigenvalues --   -1.15323  -1.14890  -1.14809  -1.14792  -1.14674
  Beta  occ. eigenvalues --   -1.14555  -1.14416  -1.14404  -1.14296  -1.13060
  Beta  occ. eigenvalues --   -1.12914  -1.12908  -1.12812  -1.12747  -1.12659
  Beta  occ. eigenvalues --   -0.21720  -0.13922  -0.11923
  Beta virt. eigenvalues --   -0.09036  -0.05396  -0.03502  -0.03475  -0.03340
  Beta virt. eigenvalues --   -0.02257  -0.02156  -0.01096  -0.00137  -0.00107
  Beta virt. eigenvalues --    0.00313   0.00877   0.01097   0.01131   0.01229

 Mulliken charges and spin densities:
               1          2
     1  Na  -0.782411   0.359641
     2  Na  -0.788876   0.357559
     3  Na   0.191061   0.014053
     4  Na   0.435043   0.151415
     5  Na   0.305672  -0.034152
     6  Na   0.338795   0.178766
     7  Na   0.300716  -0.027282
 Sum of Mulliken charges =  -0.00000   1.00000

 Dipole moment (field-independent basis, Debye):
    X=             -0.0099    Y=             -0.0022    Z=             -0.0338  Tot=              0.0353
 Quadrupole moment (field-independent basis, Debye-Ang):
   XX=            -59.2818   YY=            -63.4281   ZZ=            -75.8460
   XY=             -0.0029   XZ=             -0.0455   YZ=              0.1367

 Normal termination of Gaussian 16 at Mon Nov 13 20:49:16 2023.
