 Gaussian 16, Revision B.01,
 Gaussian 16:  ES64L-G16RevB.01 20-Dec-2017

 -------------------------
 #P B3LYP/6-311+g(d) force
 -------------------------

 ------------------------------
 Gaussian input prepared by ASE
 ------------------------------
 Symbolic Z-matrix:
 Charge =  0 Multiplicity = 2

                         Standard orientation:
 ---------------------------------------------------------------------
 Center     Atomic      Atomic             Coordinates (Angstroms)
 Number     Number       Type             X           Y           Z
 ---------------------------------------------------------------------
      1         11           0       -0.279758   -0.668275   -1.441450
      2         11           0       -0.739041   -1.177040    1.287220
      3         11           0       -2.980899   -0.299795   -0.377215
      4         11           0       -1.012388    1.769718    0.270893
      5         11           0        1.275666    0.768347    1.566652
      6         11           0        1.731092    1.279915   -1.161390
      7         11           0        2.005329   -1.672870   -0.144710
 ---------------------------------------------------------------------

 SCF Done:  E(UB3LYP) =  -1136.08469419     A.U. after   21 cycles

 The electronic state is 2-A.
 Alpha  occ. eigenvalues --  -38.44328 -38.44154 -38.43941 -38.43880 -38.43727
 Alpha  occ. eigenvalues --  -38.43179 -38.42729  -2.20352  -2.20340  -2.20244
 Alpha  occ. eigenvalues --   -2.19986  -2.19934  -2.19238  -2.18886  -1.14241
 Alpha  occ. eigenvalues --   -1.14228  -1.14152  -1.14073  -1.14011  -1.14008
 Alpha  occ. eigenvalues --   -1.13968  -1.13942  -1.13825  -1.13584  -1.13560
 Alpha  occ. eigenvalues --   -1.13552  -1.13542  -1.13489  -1.13472  -1.12926
 Alpha  occ. eigenvalues --   -1.12880  -1.12827  -1.12603  -1.12536  -1.12467
 Alpha  occ. eigenvalues --   -0.21474  -0.14201  -0.12726  -0.12005
 Alpha virt. eigenvalues --   -0.05579  -0.04117  -0.04005  -0.03640  -0.02917
 Alpha virt. eigenvalues --   -0.02867  -0.01317  -0.00391  -0.00302   0.00302
 Alpha virt. eigenvalues --    0.00730   0.00904   0.00990   0.01049   0.01088

  Beta  occ. eigenvalues --  -38.44322 -38.44086 -38.43874 -38.43838 -38.43669
  Beta  occ. eigenvalues --  -38.43168 -38.42712  -2.20329  -2.20232  -2.20127
  Beta  occ. eigenvalues --   -2.19913  -2.19834  -2.19225  -2.18862  -1.14197
  Beta  occ. eigenvalues --   -1.14155  -1.14051  -1.14012  -1.13978  -1.13958
  Beta  occ. eigenvalues --   -1.13902  -1.13874  -1.13759  -1.13517  -1.13509
  Beta  occ. eigenvalues --   -1.13482  -1.13473  -1.13418  -1.13377  -1.12918
  Beta  occ. eigenvalues --   -1.12845  -1.12805  -1.12589  -1.12487  -1.12437
  Beta  occ. eigenvalues --   -0.20621  -0.13939  -0.11775
  Beta virt. eigenvalues --   -0.08265  -0.05500  -0.04024  -0.03382  -0.03262
  Beta virt. eigenvalues --   -0.02139  -0.01881  -0.01251  -0.00361  -0.00060
  Beta virt. eigenvalues --    0.00339   0.00786   0.00907   0.01050   0.01104

 Mulliken charges and spin densities:
               1          2
     1  Na  -0.000441   0.519622
     2  Na  -0.535003   0.205425
     3  Na   0.884407  -0.047564
     4  Na  -0.844027   0.124830
     5  Na   0.777810   0.302154
     6  Na  -0.021841  -0.016226
     7  Na  -0.260905  -0.088241
 Sum of Mulliken charges =  -0.00000   1.00000

 Dipole moment (field-independent basis, Debye):
    X=             -0.1920    Y=              0.0023    Z=             -0.0881  Tot=              0.2112
 Quadrupole moment (field-independent basis, Debye-Ang):
   XX=            -56.0304   YY=            -74.5004   ZZ=            -65.7080
   XY=             -0.2412   XZ=              0.1847   YZ=             -1.1137

 Normal termination of Gaussian 16 at Mon Nov 13 19:42:56 2023.
