 Gaussian 16, Revision B.01,
 Gaussian 16:  ES64L-G16RevB.01 20-Dec-2017

 -------------------------
 #P B3LYP/6-311+g(d) force
 -------------------------

 ------------------------------
 Gaussian input prepared by ASE
 ------------------------------
 Symbolic Z-matrix:
 Charge =  0 Multiplicity = 2

                         Standard orientation:
 ---------------------------------------------------------------------
 Center     Atomic      Atomic             Coordinates (Angstroms)
 Number     Number       Type             X           Y           Z
 ---------------------------------------------------------------------
      1         11           0        0.908936   -1.586087   -0.774141
      2         11           0        0.432153    0.262592    1.575026
      3         11           0        3.033414    0.086465    0.289457
      4         11           0        0.806683    1.510350   -0.912821
      5         11           0       -2.017017    1.579257    0.372720
      6         11           0       -1.488631   -0.380741   -1.545492
      7         11           0       -1.675538   -1.471838    0.995250
 ---------------------------------------------------------------------

 SCF Done:  E(UB3LYP) =  -1136.08248520     A.U. after   23 cycles

 The electronic state is 2-A.
 Alpha  occ. eigenvalues --  -38.44570 -38.44386 -38.44169 -38.43724 -38.43307
 Alpha  occ. eigenvalues --  -38.43199 -38.42989  -2.20602  -2.20590  -2.20447
 Alpha  occ. eigenvalues --   -2.19839  -2.19385  -2.19374  -2.19164  -1.14459
 Alpha  occ. eigenvalues --   -1.14403  -1.14350  -1.14282  -1.14242  -1.14217
 Alpha  occ. eigenvalues --   -1.14196  -1.14131  -1.13996  -1.13485  -1.13457
 Alpha  occ. eigenvalues --   -1.13402  -1.13127  -1.13075  -1.13037  -1.13012
 Alpha  occ. eigenvalues --   -1.13008  -1.12899  -1.12852  -1.12806  -1.12721
 Alpha  occ. eigenvalues --   -0.21499  -0.14412  -0.12620  -0.11918
 Alpha virt. eigenvalues --   -0.05843  -0.04203  -0.04059  -0.03578  -0.02811
 Alpha virt. eigenvalues --   -0.02706  -0.01433  -0.00351  -0.00312   0.00292
 Alpha virt. eigenvalues --    0.00653   0.00881   0.00944   0.01042   0.01070

  Beta  occ. eigenvalues --  -38.44566 -38.44320 -38.44091 -38.43689 -38.43295
  Beta  occ. eigenvalues --  -38.43164 -38.42958  -2.20583  -2.20485  -2.20309
  Beta  occ. eigenvalues --   -2.19779  -2.19365  -2.19319  -2.19115  -1.14423
  Beta  occ. eigenvalues --   -1.14340  -1.14253  -1.14242  -1.14216  -1.14150
  Beta  occ. eigenvalues --   -1.14117  -1.14042  -1.13908  -1.13442  -1.13396
  Beta  occ. eigenvalues --   -1.13347  -1.13103  -1.13049  -1.13009  -1.12969
  Beta  occ. eigenvalues --   -1.12926  -1.12873  -1.12818  -1.12748  -1.12670
  Beta  occ. eigenvalues --   -0.20645  -0.14162  -0.11668
  Beta virt. eigenvalues --   -0.08183  -0.05756  -0.04075  -0.03425  -0.03222
  Beta virt. eigenvalues --   -0.02046  -0.01753  -0.01372  -0.00330  -0.00055
  Beta virt. eigenvalues --    0.00327   0.00707   0.00878   0.01047   0.01089

 Mulliken charges and spin densities:
               1          2
     1  Na  -0.830615   0.171402
     2  Na  -0.083419   0.366033
     3  Na   1.102139  -0.000466
     4  Na  -0.691400   0.206472
     5  Na  -0.120134  -0.069961
     6  Na   0.727919   0.306964
     7  Na  -0.104490   0.019557
 Sum of Mulliken charges =  -0.00000   1.00000

 Dipole moment (field-independent basis, Debye):
    X=              0.3376    Y=              0.0210    Z=              0.1108  Tot=              0.3560
 Quadrupole moment (field-independent basis, Debye-Ang):
   XX=            -54.9525   YY=            -75.2592   ZZ=            -66.1054
   XY=             -0.3642   XZ=             -0.2761   YZ=             -0.6460

 Normal termination of Gaussian 16 at Mon Nov 13 18:20:03 2023.
