 Gaussian 16, Revision B.01,
 Gaussian 16:  ES64L-G16RevB.01 20-Dec-2017

 -------------------------
 #P B3LYP/6-311+g(d) force
 -------------------------

 ------------------------------
 Gaussian input prepared by ASE
 ------------------------------
 Symbolic Z-matrix:
 Charge =  0 Multiplicity = 2

                         Standard orientation:
 ---------------------------------------------------------------------
 Center     Atomic      Atomic             Coordinates (Angstroms)
 Number     Number       Type             X           Y           Z
 ---------------------------------------------------------------------
      1         11           0        0.603920   -0.004203   -1.691864
      2         11           0       -1.237052   -1.477991    0.173148
      3         11           0       -3.812540   -0.001096   -0.133808
      4         11           0       -1.238878    1.475777    0.171315
      5         11           0        2.398816    1.836817   -0.119825
      6         11           0        0.877162    0.001216    1.717852
      7         11           0        2.408572   -1.830519   -0.116818
 ---------------------------------------------------------------------

 SCF Done:  E(UB3LYP) =  -1136.10108462     A.U. after   23 cycles

 The electronic state is 2-A.
 Alpha  occ. eigenvalues --  -38.45715 -38.43758 -38.43544 -38.43530 -38.43460
 Alpha  occ. eigenvalues --  -38.43298 -38.43291  -2.21591  -2.19887  -2.19603
 Alpha  occ. eigenvalues --   -2.19485  -2.19469  -2.19395  -2.19368  -1.15290
 Alpha  occ. eigenvalues --   -1.15264  -1.15211  -1.13679  -1.13587  -1.13527
 Alpha  occ. eigenvalues --   -1.13431  -1.13335  -1.13300  -1.13188  -1.13138
 Alpha  occ. eigenvalues --   -1.13126  -1.13106  -1.13089  -1.13061  -1.13053
 Alpha  occ. eigenvalues --   -1.13029  -1.13024  -1.12985  -1.12970  -1.12872
 Alpha  occ. eigenvalues --   -0.20332  -0.14643  -0.11434  -0.11258
 Alpha virt. eigenvalues --   -0.07138  -0.04730  -0.03852  -0.03085  -0.02551
 Alpha virt. eigenvalues --   -0.02205  -0.02177  -0.01106  -0.00272   0.00008
 Alpha virt. eigenvalues --    0.00306   0.00404   0.00644   0.00812   0.00903

  Beta  occ. eigenvalues --  -38.45722 -38.43678 -38.43534 -38.43520 -38.43371
  Beta  occ. eigenvalues --  -38.43277 -38.43270  -2.21606  -2.19741  -2.19473
  Beta  occ. eigenvalues --   -2.19461  -2.19436  -2.19364  -2.19338  -1.15300
  Beta  occ. eigenvalues --   -1.15277  -1.15212  -1.13591  -1.13498  -1.13431
  Beta  occ. eigenvalues --   -1.13340  -1.13265  -1.13228  -1.13144  -1.13105
  Beta  occ. eigenvalues --   -1.13087  -1.13081  -1.13069  -1.13045  -1.13000
  Beta  occ. eigenvalues --   -1.12980  -1.12966  -1.12931  -1.12902  -1.12859
  Beta  occ. eigenvalues --   -0.19545  -0.14435  -0.11128
  Beta virt. eigenvalues --   -0.07136  -0.06964  -0.04753  -0.03133  -0.02970
  Beta virt. eigenvalues --   -0.02423  -0.01412  -0.01251  -0.01078  -0.00040
  Beta virt. eigenvalues --    0.00067   0.00334   0.00376   0.00826   0.00905

 Mulliken charges and spin densities:
               1          2
     1  Na  -0.520344   0.471917
     2  Na   0.118778   0.301839
     3  Na   0.038939  -0.238707
     4  Na   0.112347   0.300402
     5  Na   0.141203  -0.029682
     6  Na  -0.036902   0.223614
     7  Na   0.145979  -0.029383
 Sum of Mulliken charges =  -0.00000   1.00000

 Dipole moment (field-independent basis, Debye):
    X=             -0.9354    Y=             -0.0008    Z=             -0.0717  Tot=              0.9381
 Quadrupole moment (field-independent basis, Debye-Ang):
   XX=            -43.0059   YY=            -75.3401   ZZ=            -72.5049
   XY=              0.0036   XZ=              0.6766   YZ=             -0.0144

 Normal termination of Gaussian 16 at Mon Nov 13 18:56:38 2023.
