 Gaussian 16, Revision B.01,
 Gaussian 16:  ES64L-G16RevB.01 20-Dec-2017

 -------------------------
 #P B3LYP/6-311+g(d) force
 -------------------------

 ------------------------------
 Gaussian input prepared by ASE
 ------------------------------
 Symbolic Z-matrix:
 Charge =  0 Multiplicity = 2

                         Standard orientation:
 ---------------------------------------------------------------------
 Center     Atomic      Atomic             Coordinates (Angstroms)
 Number     Number       Type             X           Y           Z
 ---------------------------------------------------------------------
      1         11           0        0.021969   -1.001999   -1.490345
      2         11           0       -0.053809   -0.989672    1.491161
      3         11           0       -2.587618   -1.376928   -0.061380
      4         11           0       -2.979274    1.598670    0.038677
      5         11           0        0.022599    1.614919   -0.011535
      6         11           0        3.024144    1.560063   -0.033160
      7         11           0        2.551988   -1.405053    0.066583
 ---------------------------------------------------------------------

 SCF Done:  E(UB3LYP) =  -1136.09918210     A.U. after   23 cycles

 The electronic state is 2-A.
 Alpha  occ. eigenvalues --  -38.44717 -38.44672 -38.44658 -38.44610 -38.43399
 Alpha  occ. eigenvalues --  -38.43251 -38.43232  -2.20699  -2.20641  -2.20554
 Alpha  occ. eigenvalues --   -2.20493  -2.19461  -2.19355  -2.19325  -1.14417
 Alpha  occ. eigenvalues --   -1.14405  -1.14385  -1.14368  -1.14360  -1.14311
 Alpha  occ. eigenvalues --   -1.14257  -1.14195  -1.14173  -1.14121  -1.14113
 Alpha  occ. eigenvalues --   -1.14098  -1.13320  -1.13165  -1.13085  -1.13081
 Alpha  occ. eigenvalues --   -1.12981  -1.12956  -1.12942  -1.12910  -1.12845
 Alpha  occ. eigenvalues --   -0.20072  -0.14776  -0.11821  -0.10528
 Alpha virt. eigenvalues --   -0.06925  -0.05917  -0.03698  -0.03485  -0.02668
 Alpha virt. eigenvalues --   -0.02027  -0.01739  -0.01389  -0.00324  -0.00059
 Alpha virt. eigenvalues --    0.00154   0.00355   0.00614   0.00691   0.00936

  Beta  occ. eigenvalues --  -38.44703 -38.44676 -38.44644 -38.44613 -38.43372
  Beta  occ. eigenvalues --  -38.43183 -38.43163  -2.20679  -2.20622  -2.20563
  Beta  occ. eigenvalues --   -2.20502  -2.19420  -2.19231  -2.19199  -1.14409
  Beta  occ. eigenvalues --   -1.14403  -1.14386  -1.14354  -1.14306  -1.14263
  Beta  occ. eigenvalues --   -1.14250  -1.14200  -1.14160  -1.14123  -1.14103
  Beta  occ. eigenvalues --   -1.14100  -1.13276  -1.13071  -1.13060  -1.13020
  Beta  occ. eigenvalues --   -1.12891  -1.12862  -1.12855  -1.12827  -1.12750
  Beta  occ. eigenvalues --   -0.19320  -0.14511  -0.11627
  Beta virt. eigenvalues --   -0.06853  -0.06485  -0.05869  -0.03396  -0.02830
  Beta virt. eigenvalues --   -0.02580  -0.01462  -0.01386  -0.00737  -0.00368
  Beta virt. eigenvalues --    0.00182   0.00222   0.00352   0.00637   0.00715

 Mulliken charges and spin densities:
               1          2
     1  Na  -0.216622   0.347151
     2  Na  -0.234885   0.351782
     3  Na   0.673270   0.151052
     4  Na   0.211885  -0.081129
     5  Na  -1.315101   0.166124
     6  Na   0.202492  -0.095002
     7  Na   0.678960   0.160022
 Sum of Mulliken charges =  -0.00000   1.00000

 Dipole moment (field-independent basis, Debye):
    X=              0.0099    Y=             -0.2053    Z=             -0.0022  Tot=              0.2056
 Quadrupole moment (field-independent basis, Debye-Ang):
   XX=            -44.1114   YY=            -71.9117   ZZ=            -76.3200
   XY=              0.0212   XZ=              0.0037   YZ=              0.0242

 Normal termination of Gaussian 16 at Mon Nov 13 16:54:47 2023.
