 Gaussian 16, Revision B.01,
 Gaussian 16:  ES64L-G16RevB.01 20-Dec-2017

 -------------------------
 #P B3LYP/6-311+g(d) force
 -------------------------

 ------------------------------
 Gaussian input prepared by ASE
 ------------------------------
 Symbolic Z-matrix:
 Charge =  0 Multiplicity = 2

                         Standard orientation:
 ---------------------------------------------------------------------
 Center     Atomic      Atomic             Coordinates (Angstroms)
 Number     Number       Type             X           Y           Z
 ---------------------------------------------------------------------
      1         11           0        2.180891    1.932864   -0.793793
      2         11           0       -2.363180    1.903761    0.782263
      3         11           0       -4.252825   -0.301583    0.036726
      4         11           0       -1.920798   -1.760029   -1.152098
      5         11           0       -0.010421    0.132477    0.185033
      6         11           0        2.117191   -1.748118    1.161924
      7         11           0        4.249142   -0.159372   -0.220054
 ---------------------------------------------------------------------

 SCF Done:  E(UB3LYP) =  -1136.09270596     A.U. after   28 cycles

 The electronic state is 2-A.
 Alpha  occ. eigenvalues --  -38.44703 -38.44668 -38.44523 -38.44522 -38.44466
 Alpha  occ. eigenvalues --  -38.44438 -38.43303  -2.20575  -2.20544  -2.20444
 Alpha  occ. eigenvalues --   -2.20442  -2.20344  -2.20314  -2.19424  -1.14326
 Alpha  occ. eigenvalues --   -1.14307  -1.14296  -1.14264  -1.14205  -1.14191
 Alpha  occ. eigenvalues --   -1.14182  -1.14171  -1.14070  -1.14062  -1.14058
 Alpha  occ. eigenvalues --   -1.14038  -1.14013  -1.14004  -1.13980  -1.13956
 Alpha  occ. eigenvalues --   -1.13910  -1.13888  -1.13102  -1.13071  -1.13006
 Alpha  occ. eigenvalues --   -0.18394  -0.15606  -0.11188  -0.10950
 Alpha virt. eigenvalues --   -0.07684  -0.04992  -0.04317  -0.03883  -0.03241
 Alpha virt. eigenvalues --   -0.02307  -0.02070  -0.00991  -0.00789  -0.00555
 Alpha virt. eigenvalues --   -0.00051   0.00071   0.00374   0.00565   0.00727

  Beta  occ. eigenvalues --  -38.44697 -38.44663 -38.44456 -38.44453 -38.44451
  Beta  occ. eigenvalues --  -38.44431 -38.43232  -2.20571  -2.20540  -2.20334
  Beta  occ. eigenvalues --   -2.20316  -2.20310  -2.20301  -2.19296  -1.14297
  Beta  occ. eigenvalues --   -1.14275  -1.14270  -1.14246  -1.14198  -1.14164
  Beta  occ. eigenvalues --   -1.14128  -1.14115  -1.14039  -1.14014  -1.13989
  Beta  occ. eigenvalues --   -1.13979  -1.13959  -1.13947  -1.13943  -1.13935
  Beta  occ. eigenvalues --   -1.13859  -1.13841  -1.13023  -1.13000  -1.12900
  Beta  occ. eigenvalues --   -0.17766  -0.14975  -0.10824
  Beta virt. eigenvalues --   -0.07503  -0.07487  -0.04446  -0.03644  -0.03502
  Beta virt. eigenvalues --   -0.03244  -0.02353  -0.01468  -0.00597  -0.00428
  Beta virt. eigenvalues --   -0.00268   0.00008   0.00159   0.00459   0.00644

 Mulliken charges and spin densities:
               1          2
     1  Na   1.470473   0.111547
     2  Na   1.726493   0.212657
     3  Na  -0.638945   0.311894
     4  Na   1.339293   0.034189
     5  Na  -4.774614   0.008706
     6  Na   1.103526   0.104618
     7  Na  -0.226226   0.216389
 Sum of Mulliken charges =  -0.00000   1.00000

 Dipole moment (field-independent basis, Debye):
    X=             -0.0464    Y=             -0.1900    Z=             -0.0462  Tot=              0.2009
 Quadrupole moment (field-independent basis, Debye-Ang):
   XX=            -61.4872   YY=            -74.3137   ZZ=            -65.7001
   XY=             -0.9516   XZ=             -1.0252   YZ=             -0.1029

 Normal termination of Gaussian 16 at Mon Nov 13 15:47:34 2023.
