 Gaussian 16, Revision B.01,
 Gaussian 16:  ES64L-G16RevB.01 20-Dec-2017

 -------------------------
 #P B3LYP/6-311+g(d) force
 -------------------------

 ------------------------------
 Gaussian input prepared by ASE
 ------------------------------
 Symbolic Z-matrix:
 Charge =  0 Multiplicity = 2

                         Standard orientation:
 ---------------------------------------------------------------------
 Center     Atomic      Atomic             Coordinates (Angstroms)
 Number     Number       Type             X           Y           Z
 ---------------------------------------------------------------------
      1         11           0       -0.387036    1.192487   -1.354195
      2         11           0        1.997316    1.784378    0.368464
      3         11           0        2.724103   -0.821634    1.658819
      4         11           0        1.886917   -0.753341   -1.219141
      5         11           0       -0.939548   -1.756296   -1.219868
      6         11           0       -2.586975   -1.278289    1.244859
      7         11           0       -2.694777    1.632694    0.521061
 ---------------------------------------------------------------------

 SCF Done:  E(UB3LYP) =  -1136.10115557     A.U. after   26 cycles

 The electronic state is 2-A.
 Alpha  occ. eigenvalues --  -38.45079 -38.44647 -38.44012 -38.43958 -38.43889
 Alpha  occ. eigenvalues --  -38.43491 -38.43172  -2.20987  -2.20544  -2.20040
 Alpha  occ. eigenvalues --   -2.19900  -2.19864  -2.19581  -2.19153  -1.14692
 Alpha  occ. eigenvalues --   -1.14637  -1.14585  -1.14231  -1.14219  -1.14170
 Alpha  occ. eigenvalues --   -1.13841  -1.13756  -1.13674  -1.13623  -1.13565
 Alpha  occ. eigenvalues --   -1.13560  -1.13515  -1.13510  -1.13449  -1.13260
 Alpha  occ. eigenvalues --   -1.13205  -1.13168  -1.12836  -1.12791  -1.12754
 Alpha  occ. eigenvalues --   -0.19345  -0.14769  -0.12141  -0.11353
 Alpha virt. eigenvalues --   -0.05697  -0.05387  -0.04723  -0.03264  -0.03182
 Alpha virt. eigenvalues --   -0.02889  -0.01383  -0.00368  -0.00346  -0.00004
 Alpha virt. eigenvalues --    0.00299   0.00348   0.00491   0.00634   0.00726

  Beta  occ. eigenvalues --  -38.45010 -38.44610 -38.44003 -38.43924 -38.43874
  Beta  occ. eigenvalues --  -38.43429 -38.43145  -2.20858  -2.20473  -2.19988
  Beta  occ. eigenvalues --   -2.19886  -2.19842  -2.19472  -2.19111  -1.14612
  Beta  occ. eigenvalues --   -1.14544  -1.14495  -1.14182  -1.14173  -1.14121
  Beta  occ. eigenvalues --   -1.13800  -1.13691  -1.13625  -1.13600  -1.13539
  Beta  occ. eigenvalues --   -1.13523  -1.13501  -1.13481  -1.13438  -1.13182
  Beta  occ. eigenvalues --   -1.13143  -1.13078  -1.12784  -1.12748  -1.12730
  Beta  occ. eigenvalues --   -0.18572  -0.14242  -0.11237
  Beta virt. eigenvalues --   -0.08223  -0.05484  -0.04931  -0.04318  -0.03191
  Beta virt. eigenvalues --   -0.02557  -0.02020  -0.01281  -0.00374  -0.00052
  Beta virt. eigenvalues --    0.00237   0.00358   0.00431   0.00533   0.00771

 Mulliken charges and spin densities:
               1          2
     1  Na   1.096695   0.310026
     2  Na  -0.577431   0.143050
     3  Na  -0.315710   0.341223
     4  Na   0.948842  -0.078554
     5  Na  -1.067297   0.026259
     6  Na   0.179205   0.307468
     7  Na  -0.264306  -0.049471
 Sum of Mulliken charges =  -0.00000   1.00000

 Dipole moment (field-independent basis, Debye):
    X=              0.2271    Y=             -0.2374    Z=              1.2669  Tot=              1.3088
 Quadrupole moment (field-independent basis, Debye-Ang):
   XX=            -59.8160   YY=            -74.8871   ZZ=            -64.0813
   XY=             -0.4503   XZ=             -0.5164   YZ=             -1.7597

 Normal termination of Gaussian 16 at Mon Nov 13 15:42:30 2023.
