 Gaussian 16, Revision B.01,
 Gaussian 16:  ES64L-G16RevB.01 20-Dec-2017

 -------------------------
 #P B3LYP/6-311+g(d) force
 -------------------------

 ------------------------------
 Gaussian input prepared by ASE
 ------------------------------
 Symbolic Z-matrix:
 Charge =  0 Multiplicity = 2

                         Standard orientation:
 ---------------------------------------------------------------------
 Center     Atomic      Atomic             Coordinates (Angstroms)
 Number     Number       Type             X           Y           Z
 ---------------------------------------------------------------------
      1         11           0       -0.403602   -2.071849   -0.553622
      2         11           0       -2.707650   -0.272713   -1.238804
      3         11           0       -2.213484   -1.046802    1.608570
      4         11           0       -1.780543    1.789346    0.735181
      5         11           0        0.926781    2.457768   -0.368453
      6         11           0        1.952660   -0.278363   -1.058490
      7         11           0        4.225838   -0.577388    0.875619
 ---------------------------------------------------------------------

 SCF Done:  E(UB3LYP) =  -1136.09939676     A.U. after   22 cycles

 The electronic state is 2-A.
 Alpha  occ. eigenvalues --  -38.45801 -38.44880 -38.44568 -38.43550 -38.43536
 Alpha  occ. eigenvalues --  -38.43533 -38.43169  -2.21769  -2.20702  -2.20566
 Alpha  occ. eigenvalues --   -2.19530  -2.19506  -2.19416  -2.19155  -1.15493
 Alpha  occ. eigenvalues --   -1.15440  -1.15393  -1.14382  -1.14328  -1.14320
 Alpha  occ. eigenvalues --   -1.14257  -1.14214  -1.14190  -1.13333  -1.13273
 Alpha  occ. eigenvalues --   -1.13190  -1.13179  -1.13145  -1.13138  -1.13067
 Alpha  occ. eigenvalues --   -1.13035  -1.13002  -1.12834  -1.12816  -1.12747
 Alpha  occ. eigenvalues --   -0.18983  -0.14498  -0.12026  -0.10826
 Alpha virt. eigenvalues --   -0.07084  -0.05013  -0.04502  -0.03713  -0.02509
 Alpha virt. eigenvalues --   -0.02305  -0.02061  -0.00717  -0.00608  -0.00251
 Alpha virt. eigenvalues --   -0.00044   0.00158   0.00277   0.00700   0.00730

  Beta  occ. eigenvalues --  -38.45790 -38.44808 -38.44518 -38.43522 -38.43522
  Beta  occ. eigenvalues --  -38.43518 -38.43151  -2.21754  -2.20565  -2.20475
  Beta  occ. eigenvalues --   -2.19492  -2.19479  -2.19391  -2.19128  -1.15486
  Beta  occ. eigenvalues --   -1.15414  -1.15359  -1.14294  -1.14235  -1.14226
  Beta  occ. eigenvalues --   -1.14202  -1.14143  -1.14123  -1.13310  -1.13250
  Beta  occ. eigenvalues --   -1.13162  -1.13129  -1.13124  -1.13101  -1.13030
  Beta  occ. eigenvalues --   -1.13004  -1.12990  -1.12825  -1.12795  -1.12699
  Beta  occ. eigenvalues --   -0.18390  -0.13924  -0.11830
  Beta virt. eigenvalues --   -0.07198  -0.06738  -0.04916  -0.03947  -0.03572
  Beta virt. eigenvalues --   -0.02189  -0.01908  -0.01453  -0.00513  -0.00279
  Beta virt. eigenvalues --   -0.00103   0.00079   0.00237   0.00429   0.00740

 Mulliken charges and spin densities:
               1          2
     1  Na  -0.183765   0.287171
     2  Na   0.637304   0.255391
     3  Na  -0.173843   0.178956
     4  Na  -0.260828  -0.008857
     5  Na  -0.220965   0.142522
     6  Na   0.117744  -0.162885
     7  Na   0.084352   0.307702
 Sum of Mulliken charges =  -0.00000   1.00000

 Dipole moment (field-independent basis, Debye):
    X=             -0.4955    Y=             -0.2944    Z=              0.0509  Tot=              0.5786
 Quadrupole moment (field-independent basis, Debye-Ang):
   XX=            -58.3028   YY=            -74.5268   ZZ=            -66.2870
   XY=              1.7307   XZ=              5.9687   YZ=             -2.6380

 Normal termination of Gaussian 16 at Mon Nov 13 15:34:34 2023.
