 Gaussian 16, Revision B.01,
 Gaussian 16:  ES64L-G16RevB.01 20-Dec-2017

 -------------------------
 #P B3LYP/6-311+g(d) force
 -------------------------

 ------------------------------
 Gaussian input prepared by ASE
 ------------------------------
 Symbolic Z-matrix:
 Charge =  0 Multiplicity = 2

                         Standard orientation:
 ---------------------------------------------------------------------
 Center     Atomic      Atomic             Coordinates (Angstroms)
 Number     Number       Type             X           Y           Z
 ---------------------------------------------------------------------
      1         11           0        0.585157   -0.041268   -1.270199
      2         11           0       -0.842194    2.148901   -0.194731
      3         11           0        3.413509   -0.054954   -0.439687
      4         11           0        1.214493    0.452578    1.451726
      5         11           0       -0.281208   -2.112516    0.451237
      6         11           0       -1.883102    0.034532    1.383284
      7         11           0       -2.206655   -0.427273   -1.381631
 ---------------------------------------------------------------------

 SCF Done:  E(UB3LYP) =  -1136.08470627     A.U. after   26 cycles

 The electronic state is 2-A.
 Alpha  occ. eigenvalues --  -38.44921 -38.44348 -38.44310 -38.43914 -38.43733
 Alpha  occ. eigenvalues --  -38.42558 -38.42442  -2.20821  -2.20507  -2.20446
 Alpha  occ. eigenvalues --   -2.20250  -2.19888  -2.18650  -2.18533  -1.14586
 Alpha  occ. eigenvalues --   -1.14517  -1.14417  -1.14406  -1.14305  -1.14214
 Alpha  occ. eigenvalues --   -1.14145  -1.14062  -1.13990  -1.13939  -1.13878
 Alpha  occ. eigenvalues --   -1.13799  -1.13565  -1.13492  -1.13456  -1.12379
 Alpha  occ. eigenvalues --   -1.12303  -1.12252  -1.12212  -1.12184  -1.12112
 Alpha  occ. eigenvalues --   -0.21131  -0.14122  -0.12514  -0.11727
 Alpha virt. eigenvalues --   -0.06223  -0.04230  -0.03484  -0.03452  -0.02748
 Alpha virt. eigenvalues --   -0.02600  -0.01836  -0.00589  -0.00225   0.00273
 Alpha virt. eigenvalues --    0.00515   0.00643   0.00902   0.00993   0.01020

  Beta  occ. eigenvalues --  -38.44914 -38.44297 -38.44256 -38.43854 -38.43679
  Beta  occ. eigenvalues --  -38.42539 -38.42429  -2.20808  -2.20414  -2.20355
  Beta  occ. eigenvalues --   -2.20145  -2.19794  -2.18622  -2.18517  -1.14567
  Beta  occ. eigenvalues --   -1.14498  -1.14399  -1.14365  -1.14213  -1.14124
  Beta  occ. eigenvalues --   -1.14082  -1.13987  -1.13925  -1.13867  -1.13808
  Beta  occ. eigenvalues --   -1.13722  -1.13490  -1.13400  -1.13392  -1.12365
  Beta  occ. eigenvalues --   -1.12248  -1.12242  -1.12187  -1.12149  -1.12079
  Beta  occ. eigenvalues --   -0.20258  -0.13959  -0.11414
  Beta virt. eigenvalues --   -0.08078  -0.06107  -0.03665  -0.03418  -0.03178
  Beta virt. eigenvalues --   -0.01916  -0.01797  -0.01641  -0.00259  -0.00173
  Beta virt. eigenvalues --    0.00307   0.00583   0.00791   0.00893   0.01003

 Mulliken charges and spin densities:
               1          2
     1  Na   0.662545   0.339467
     2  Na  -1.113486   0.327554
     3  Na  -0.137123   0.115594
     4  Na   0.158764   0.078173
     5  Na  -1.265530   0.128368
     6  Na   1.172869   0.227947
     7  Na   0.521960  -0.217103
 Sum of Mulliken charges =  -0.00000   1.00000

 Dipole moment (field-independent basis, Debye):
    X=              0.6308    Y=             -0.0661    Z=             -0.0227  Tot=              0.6347
 Quadrupole moment (field-independent basis, Debye-Ang):
   XX=            -52.0847   YY=            -76.2295   ZZ=            -65.4261
   XY=             -0.2401   XZ=             -0.1974   YZ=              0.0926

 Normal termination of Gaussian 16 at Mon Nov 13 18:13:45 2023.
