 Gaussian 16, Revision B.01,
 Gaussian 16:  ES64L-G16RevB.01 20-Dec-2017

 -------------------------
 #P B3LYP/6-311+g(d) force
 -------------------------

 ------------------------------
 Gaussian input prepared by ASE
 ------------------------------
 Symbolic Z-matrix:
 Charge =  0 Multiplicity = 2

                         Standard orientation:
 ---------------------------------------------------------------------
 Center     Atomic      Atomic             Coordinates (Angstroms)
 Number     Number       Type             X           Y           Z
 ---------------------------------------------------------------------
      1         11           0        0.552943   -0.008659   -1.578582
      2         11           0        0.646377    1.510731    0.698446
      3         11           0        2.965006   -0.003519   -0.034152
      4         11           0        0.638786   -1.505076    0.711994
      5         11           0       -1.436473    0.010670    1.654566
      6         11           0       -1.686445   -1.359855   -0.719502
      7         11           0       -1.680193    1.355708   -0.732770
 ---------------------------------------------------------------------

 SCF Done:  E(UB3LYP) =  -1136.03917226     A.U. after   27 cycles

 The electronic state is 2-A.
 Alpha  occ. eigenvalues --  -38.45127 -38.44869 -38.44652 -38.44116 -38.44106
 Alpha  occ. eigenvalues --  -38.43496 -38.43482  -2.21415  -2.21278  -2.20689
 Alpha  occ. eigenvalues --   -2.20410  -2.20343  -2.19824  -2.19800  -1.15336
 Alpha  occ. eigenvalues --   -1.15156  -1.15130  -1.15088  -1.15064  -1.14933
 Alpha  occ. eigenvalues --   -1.14443  -1.14329  -1.14320  -1.14264  -1.14129
 Alpha  occ. eigenvalues --   -1.14093  -1.13963  -1.13932  -1.13737  -1.13564
 Alpha  occ. eigenvalues --   -1.13429  -1.13417  -1.13408  -1.13344  -1.13267
 Alpha  occ. eigenvalues --   -0.22434  -0.14504  -0.13203  -0.12128
 Alpha virt. eigenvalues --   -0.05853  -0.04153  -0.03852  -0.03744  -0.02903
 Alpha virt. eigenvalues --   -0.02707  -0.01326  -0.00340  -0.00190   0.00261
 Alpha virt. eigenvalues --    0.00739   0.01024   0.01044   0.01102   0.01104

  Beta  occ. eigenvalues --  -38.45047 -38.44783 -38.44650 -38.44084 -38.44075
  Beta  occ. eigenvalues --  -38.43462 -38.43448  -2.21272  -2.21127  -2.20688
  Beta  occ. eigenvalues --   -2.20360  -2.20294  -2.19770  -2.19748  -1.15260
  Beta  occ. eigenvalues --   -1.15059  -1.15011  -1.14975  -1.14962  -1.14828
  Beta  occ. eigenvalues --   -1.14430  -1.14323  -1.14301  -1.14224  -1.14097
  Beta  occ. eigenvalues --   -1.14065  -1.13874  -1.13844  -1.13703  -1.13527
  Beta  occ. eigenvalues --   -1.13391  -1.13337  -1.13324  -1.13309  -1.13217
  Beta  occ. eigenvalues --   -0.21540  -0.14254  -0.11830
  Beta virt. eigenvalues --   -0.08621  -0.05764  -0.03750  -0.03374  -0.03334
  Beta virt. eigenvalues --   -0.02090  -0.01878  -0.01260  -0.00177  -0.00078
  Beta virt. eigenvalues --    0.00306   0.00792   0.01110   0.01111   0.01127

 Mulliken charges and spin densities:
               1          2
     1  Na  -0.345092   0.135437
     2  Na  -0.610643   0.397203
     3  Na   0.974628  -0.070873
     4  Na  -0.598963   0.400630
     5  Na   0.456113   0.023349
     6  Na   0.057135   0.054896
     7  Na   0.066822   0.059358
 Sum of Mulliken charges =  -0.00000   1.00000

 Dipole moment (field-independent basis, Debye):
    X=              0.4473    Y=              0.0007    Z=              0.1150  Tot=              0.4619
 Quadrupole moment (field-independent basis, Debye-Ang):
   XX=            -56.2510   YY=            -76.8422   ZZ=            -64.7673
   XY=             -0.0009   XZ=              0.5433   YZ=              0.0046

 Normal termination of Gaussian 16 at Mon Nov 13 20:32:08 2023.
