 Gaussian 16, Revision B.01,
 Gaussian 16:  ES64L-G16RevB.01 20-Dec-2017

 -------------------------
 #P B3LYP/6-311+g(d) force
 -------------------------

 ------------------------------
 Gaussian input prepared by ASE
 ------------------------------
 Symbolic Z-matrix:
 Charge =  0 Multiplicity = 2

                         Standard orientation:
 ---------------------------------------------------------------------
 Center     Atomic      Atomic             Coordinates (Angstroms)
 Number     Number       Type             X           Y           Z
 ---------------------------------------------------------------------
      1         11           0       -3.065391   -0.945773   -1.072723
      2         11           0        2.329915    1.622026   -0.627794
      3         11           0        3.761148   -0.288665    1.193166
      4         11           0        2.033028   -1.330353   -1.026084
      5         11           0       -0.405035    0.380119   -0.653974
      6         11           0       -1.772120   -1.002990    1.632383
      7         11           0       -2.881544    1.565635    0.555026
 ---------------------------------------------------------------------

 SCF Done:  E(UB3LYP) =  -1136.07626492     A.U. after   41 cycles

 The electronic state is 2-A.
 Alpha  occ. eigenvalues --  -38.46189 -38.44771 -38.44671 -38.44597 -38.44023
 Alpha  occ. eigenvalues --  -38.43916 -38.42489  -2.22158  -2.20755  -2.20646
 Alpha  occ. eigenvalues --   -2.20604  -2.19933  -2.19893  -2.18691  -1.15880
 Alpha  occ. eigenvalues --   -1.15817  -1.15781  -1.14488  -1.14449  -1.14439
 Alpha  occ. eigenvalues --   -1.14378  -1.14320  -1.14285  -1.14257  -1.14227
 Alpha  occ. eigenvalues --   -1.14128  -1.13709  -1.13602  -1.13577  -1.13552
 Alpha  occ. eigenvalues --   -1.13533  -1.13439  -1.12396  -1.12358  -1.12295
 Alpha  occ. eigenvalues --   -0.19479  -0.16072  -0.11098  -0.10071
 Alpha virt. eigenvalues --   -0.07511  -0.05843  -0.05223  -0.03102  -0.02776
 Alpha virt. eigenvalues --   -0.01810  -0.01672  -0.01324  -0.00756  -0.00462
 Alpha virt. eigenvalues --   -0.00040   0.00142   0.00273   0.00526   0.00606

  Beta  occ. eigenvalues --  -38.46165 -38.44750 -38.44646 -38.44531 -38.43995
  Beta  occ. eigenvalues --  -38.43921 -38.42447  -2.22120  -2.20718  -2.20606
  Beta  occ. eigenvalues --   -2.20481  -2.19909  -2.19875  -2.18624  -1.15863
  Beta  occ. eigenvalues --   -1.15751  -1.15743  -1.14470  -1.14406  -1.14380
  Beta  occ. eigenvalues --   -1.14360  -1.14269  -1.14238  -1.14182  -1.14147
  Beta  occ. eigenvalues --   -1.14044  -1.13684  -1.13597  -1.13559  -1.13539
  Beta  occ. eigenvalues --   -1.13506  -1.13423  -1.12362  -1.12298  -1.12196
  Beta  occ. eigenvalues --   -0.18740  -0.15732  -0.09921
  Beta virt. eigenvalues --   -0.07288  -0.07192  -0.05429  -0.04828  -0.02954
  Beta virt. eigenvalues --   -0.02497  -0.01360  -0.01176  -0.00793  -0.00655
  Beta virt. eigenvalues --   -0.00240   0.00048   0.00234   0.00356   0.00594

 Mulliken charges and spin densities:
               1          2
     1  Na   1.230384  -0.061832
     2  Na  -0.083530   0.345723
     3  Na  -0.251441   0.172384
     4  Na   0.747049  -0.311014
     5  Na  -1.845324   0.236857
     6  Na  -0.139117   0.209582
     7  Na   0.341980   0.408300
 Sum of Mulliken charges =  -0.00000   1.00000

 Dipole moment (field-independent basis, Debye):
    X=             -1.1230    Y=              0.0304    Z=             -0.5454  Tot=              1.2488
 Quadrupole moment (field-independent basis, Debye-Ang):
   XX=            -55.1790   YY=            -76.0304   ZZ=            -68.1681
   XY=              1.5227   XZ=              3.6258   YZ=              7.5947

 Normal termination of Gaussian 16 at Mon Nov 13 18:00:03 2023.
