 Gaussian 16, Revision B.01,
 Gaussian 16:  ES64L-G16RevB.01 20-Dec-2017

 -------------------------
 #P B3LYP/6-311+g(d) force
 -------------------------

 ------------------------------
 Gaussian input prepared by ASE
 ------------------------------
 Symbolic Z-matrix:
 Charge =  0 Multiplicity = 2

                         Standard orientation:
 ---------------------------------------------------------------------
 Center     Atomic      Atomic             Coordinates (Angstroms)
 Number     Number       Type             X           Y           Z
 ---------------------------------------------------------------------
      1         11           0       -0.857789    1.288963    0.046190
      2         11           0       -0.476254   -1.198658    1.696652
      3         11           0       -3.814266    0.765125    0.028013
      4         11           0       -1.903843   -1.339270   -0.934679
      5         11           0        1.053504   -0.832458   -0.855530
      6         11           0        2.090501    1.850675   -0.000379
      7         11           0        3.908146   -0.534376    0.019733
 ---------------------------------------------------------------------

 SCF Done:  E(UB3LYP) =  -1136.08653316     A.U. after   55 cycles

 The electronic state is 2-A.
 Alpha  occ. eigenvalues --  -38.44828 -38.44599 -38.44036 -38.43843 -38.43781
 Alpha  occ. eigenvalues --  -38.43505 -38.43089  -2.20740  -2.20598  -2.20128
 Alpha  occ. eigenvalues --   -2.19953  -2.19763  -2.19494  -2.19262  -1.14445
 Alpha  occ. eigenvalues --   -1.14390  -1.14361  -1.14347  -1.14252  -1.14215
 Alpha  occ. eigenvalues --   -1.13924  -1.13830  -1.13725  -1.13695  -1.13614
 Alpha  occ. eigenvalues --   -1.13525  -1.13443  -1.13386  -1.13380  -1.13229
 Alpha  occ. eigenvalues --   -1.13129  -1.13115  -1.12938  -1.12893  -1.12838
 Alpha  occ. eigenvalues --   -0.20125  -0.15286  -0.11288  -0.10975
 Alpha virt. eigenvalues --   -0.07784  -0.04967  -0.03808  -0.03620  -0.03030
 Alpha virt. eigenvalues --   -0.01890  -0.01576  -0.01327  -0.00704  -0.00426
 Alpha virt. eigenvalues --   -0.00026   0.00298   0.00556   0.00707   0.00846

  Beta  occ. eigenvalues --  -38.44760 -38.44567 -38.44009 -38.43801 -38.43766
  Beta  occ. eigenvalues --  -38.43487 -38.43047  -2.20614  -2.20542  -2.20081
  Beta  occ. eigenvalues --   -2.19932  -2.19687  -2.19468  -2.19194  -1.14369
  Beta  occ. eigenvalues --   -1.14317  -1.14298  -1.14257  -1.14216  -1.14166
  Beta  occ. eigenvalues --   -1.13883  -1.13801  -1.13685  -1.13646  -1.13596
  Beta  occ. eigenvalues --   -1.13499  -1.13401  -1.13330  -1.13321  -1.13181
  Beta  occ. eigenvalues --   -1.13114  -1.13079  -1.12898  -1.12840  -1.12748
  Beta  occ. eigenvalues --   -0.19484  -0.14621  -0.11065
  Beta virt. eigenvalues --   -0.07509  -0.07276  -0.04692  -0.03369  -0.03202
  Beta virt. eigenvalues --   -0.02784  -0.01735  -0.01167  -0.00886  -0.00407
  Beta virt. eigenvalues --   -0.00145   0.00158   0.00379   0.00713   0.00790

 Mulliken charges and spin densities:
               1          2
     1  Na  -1.212067   0.120213
     2  Na  -0.057990  -0.053496
     3  Na   0.352053   0.188787
     4  Na   0.527789   0.612423
     5  Na  -0.796081  -0.029187
     6  Na   0.067435  -0.000624
     7  Na   1.118860   0.161884
 Sum of Mulliken charges =  -0.00000   1.00000

 Dipole moment (field-independent basis, Debye):
    X=              0.3540    Y=             -0.7691    Z=              1.3789  Tot=              1.6181
 Quadrupole moment (field-independent basis, Debye-Ang):
   XX=            -61.1609   YY=            -77.6857   ZZ=            -62.8835
   XY=              1.6222   XZ=              0.2438   YZ=             -0.3654

 Normal termination of Gaussian 16 at Mon Nov 13 17:51:04 2023.
