 Gaussian 16, Revision B.01,
 Gaussian 16:  ES64L-G16RevB.01 20-Dec-2017

 -------------------------
 #P B3LYP/6-311+g(d) force
 -------------------------

 ------------------------------
 Gaussian input prepared by ASE
 ------------------------------
 Symbolic Z-matrix:
 Charge =  0 Multiplicity = 2

                         Standard orientation:
 ---------------------------------------------------------------------
 Center     Atomic      Atomic             Coordinates (Angstroms)
 Number     Number       Type             X           Y           Z
 ---------------------------------------------------------------------
      1         11           0       -0.687860   -0.016575    1.493538
      2         11           0        1.083008   -1.928769    0.002892
      3         11           0        2.294981    0.359910    1.500462
      4         11           0        2.298282    0.352415   -1.500233
      5         11           0       -1.322920    2.509102   -0.004030
      6         11           0       -0.684357   -0.018851   -1.491839
      7         11           0       -2.981133   -1.257232   -0.000791
 ---------------------------------------------------------------------

 SCF Done:  E(UB3LYP) =  -1136.10203946     A.U. after   24 cycles

 The electronic state is 2-A.
 Alpha  occ. eigenvalues --  -38.44507 -38.44503 -38.44145 -38.43563 -38.43563
 Alpha  occ. eigenvalues --  -38.43082 -38.42684  -2.20509  -2.20491  -2.20039
 Alpha  occ. eigenvalues --   -2.19771  -2.19749  -2.19159  -2.18586  -1.14301
 Alpha  occ. eigenvalues --   -1.14261  -1.14225  -1.14103  -1.14075  -1.14021
 Alpha  occ. eigenvalues --   -1.13816  -1.13757  -1.13624  -1.13598  -1.13446
 Alpha  occ. eigenvalues --   -1.13425  -1.13347  -1.13328  -1.13312  -1.12864
 Alpha  occ. eigenvalues --   -1.12824  -1.12721  -1.12288  -1.12257  -1.12172
 Alpha  occ. eigenvalues --   -0.20278  -0.14015  -0.12381  -0.11364
 Alpha virt. eigenvalues --   -0.05870  -0.04412  -0.04306  -0.03498  -0.02676
 Alpha virt. eigenvalues --   -0.02555  -0.01704  -0.00551  -0.00471   0.00311
 Alpha virt. eigenvalues --    0.00543   0.00573   0.00845   0.00933   0.00990

  Beta  occ. eigenvalues --  -38.44455 -38.44451 -38.44144 -38.43500 -38.43500
  Beta  occ. eigenvalues --  -38.43062 -38.42686  -2.20417  -2.20399  -2.20039
  Beta  occ. eigenvalues --   -2.19660  -2.19638  -2.19131  -2.18592  -1.14252
  Beta  occ. eigenvalues --   -1.14164  -1.14139  -1.14041  -1.14013  -1.13954
  Beta  occ. eigenvalues --   -1.13800  -1.13741  -1.13624  -1.13539  -1.13361
  Beta  occ. eigenvalues --   -1.13345  -1.13269  -1.13253  -1.13218  -1.12850
  Beta  occ. eigenvalues --   -1.12735  -1.12713  -1.12293  -1.12244  -1.12178
  Beta  occ. eigenvalues --   -0.19453  -0.13844  -0.11128
  Beta virt. eigenvalues --   -0.08019  -0.05780  -0.04239  -0.03732  -0.02952
  Beta virt. eigenvalues --   -0.02103  -0.01843  -0.01558  -0.00445  -0.00185
  Beta virt. eigenvalues --    0.00334   0.00569   0.00741   0.00849   0.00942

 Mulliken charges and spin densities:
               1          2
     1  Na  -0.209760   0.032650
     2  Na  -0.346491   0.573089
     3  Na   0.296071   0.110477
     4  Na   0.300773   0.110479
     5  Na  -0.256563   0.084357
     6  Na  -0.209840   0.032005
     7  Na   0.425810   0.056944
 Sum of Mulliken charges =  -0.00000   1.00000

 Dipole moment (field-independent basis, Debye):
    X=              0.2317    Y=              0.0594    Z=              0.0002  Tot=              0.2392
 Quadrupole moment (field-independent basis, Debye-Ang):
   XX=            -54.0731   YY=            -73.8182   ZZ=            -66.1059
   XY=              2.0199   XZ=             -0.0027   YZ=             -0.0151

 Normal termination of Gaussian 16 at Mon Nov 13 18:57:47 2023.
