 Gaussian 16, Revision B.01,
 Gaussian 16:  ES64L-G16RevB.01 20-Dec-2017

 -------------------------
 #P B3LYP/6-311+g(d) force
 -------------------------

 ------------------------------
 Gaussian input prepared by ASE
 ------------------------------
 Symbolic Z-matrix:
 Charge =  0 Multiplicity = 2

                         Standard orientation:
 ---------------------------------------------------------------------
 Center     Atomic      Atomic             Coordinates (Angstroms)
 Number     Number       Type             X           Y           Z
 ---------------------------------------------------------------------
      1         11           0       -0.191025    0.034384   -1.704424
      2         11           0        0.309926   -2.008840   -0.018033
      3         11           0        2.852390   -0.571717    0.054906
      4         11           0        1.255040    1.872454   -0.048526
      5         11           0       -1.659416    1.588628   -0.083234
      6         11           0       -0.237168    0.198128    1.738576
      7         11           0       -2.329748   -1.113038    0.060734
 ---------------------------------------------------------------------

 SCF Done:  E(UB3LYP) =  -1136.07428287     A.U. after   19 cycles

 The electronic state is 2-A.
 Alpha  occ. eigenvalues --  -38.44393 -38.44237 -38.44207 -38.43891 -38.43838
 Alpha  occ. eigenvalues --  -38.43342 -38.43266  -2.20698  -2.20505  -2.20174
 Alpha  occ. eigenvalues --   -2.20078  -2.20024  -2.19533  -2.19407  -1.14621
 Alpha  occ. eigenvalues --   -1.14500  -1.14376  -1.14321  -1.14206  -1.14152
 Alpha  occ. eigenvalues --   -1.13919  -1.13895  -1.13872  -1.13790  -1.13776
 Alpha  occ. eigenvalues --   -1.13654  -1.13624  -1.13597  -1.13472  -1.13177
 Alpha  occ. eigenvalues --   -1.13144  -1.13093  -1.13061  -1.13041  -1.12974
 Alpha  occ. eigenvalues --   -0.21719  -0.14149  -0.12778  -0.12140
 Alpha virt. eigenvalues --   -0.05557  -0.04322  -0.03926  -0.03697  -0.03019
 Alpha virt. eigenvalues --   -0.02663  -0.01345  -0.00460  -0.00059   0.00318
 Alpha virt. eigenvalues --    0.00639   0.00777   0.01010   0.01110   0.01211

  Beta  occ. eigenvalues --  -38.44297 -38.44206 -38.44142 -38.43877 -38.43818
  Beta  occ. eigenvalues --  -38.43324 -38.43252  -2.20526  -2.20336  -2.20176
  Beta  occ. eigenvalues --   -2.20051  -2.20003  -2.19509  -2.19389  -1.14537
  Beta  occ. eigenvalues --   -1.14378  -1.14271  -1.14204  -1.14090  -1.14037
  Beta  occ. eigenvalues --   -1.13918  -1.13899  -1.13853  -1.13765  -1.13755
  Beta  occ. eigenvalues --   -1.13618  -1.13549  -1.13505  -1.13463  -1.13161
  Beta  occ. eigenvalues --   -1.13086  -1.13060  -1.13054  -1.12972  -1.12969
  Beta  occ. eigenvalues --   -0.20900  -0.13787  -0.12400
  Beta virt. eigenvalues --   -0.07920  -0.05564  -0.04316  -0.03881  -0.02745
  Beta virt. eigenvalues --   -0.02087  -0.01609  -0.01263  -0.00426   0.00088
  Beta virt. eigenvalues --    0.00352   0.00636   0.00755   0.01029   0.01114

 Mulliken charges and spin densities:
               1          2
     1  Na  -0.329055   0.445954
     2  Na   0.281200   0.094005
     3  Na  -0.409425  -0.110090
     4  Na   0.127866   0.011055
     5  Na   0.358817   0.043201
     6  Na  -0.318670   0.511957
     7  Na   0.289267   0.003919
 Sum of Mulliken charges =  -0.00000   1.00000

 Dipole moment (field-independent basis, Debye):
    X=              0.4618    Y=             -0.1060    Z=              0.1167  Tot=              0.4880
 Quadrupole moment (field-independent basis, Debye-Ang):
   XX=            -56.5732   YY=            -71.0331   ZZ=            -69.5477
   XY=              0.2376   XZ=              0.1095   YZ=             -0.3518

 Normal termination of Gaussian 16 at Mon Nov 13 20:00:28 2023.
