 Gaussian 16, Revision B.01,
 Gaussian 16:  ES64L-G16RevB.01 20-Dec-2017

 -------------------------
 #P B3LYP/6-311+g(d) force
 -------------------------

 ------------------------------
 Gaussian input prepared by ASE
 ------------------------------
 Symbolic Z-matrix:
 Charge =  0 Multiplicity = 2

                         Standard orientation:
 ---------------------------------------------------------------------
 Center     Atomic      Atomic             Coordinates (Angstroms)
 Number     Number       Type             X           Y           Z
 ---------------------------------------------------------------------
      1         11           0        0.493125    0.079032    1.871303
      2         11           0       -0.108790   -2.075779   -0.142934
      3         11           0       -4.149536    0.035597   -0.008758
      4         11           0       -1.349333    0.752010   -0.117383
      5         11           0        1.438980    2.081850   -0.164680
      6         11           0        1.017009   -0.135256   -1.782291
      7         11           0        2.658545   -0.737454    0.344742
 ---------------------------------------------------------------------

 SCF Done:  E(UB3LYP) =  -1136.07515919     A.U. after   28 cycles

 The electronic state is 2-A.
 Alpha  occ. eigenvalues --  -38.45952 -38.44888 -38.44657 -38.44519 -38.43265
 Alpha  occ. eigenvalues --  -38.42709 -38.42545  -2.21737  -2.21020  -2.20832
 Alpha  occ. eigenvalues --   -2.20751  -2.19429  -2.18789  -2.18640  -1.15462
 Alpha  occ. eigenvalues --   -1.15380  -1.15363  -1.14941  -1.14898  -1.14599
 Alpha  occ. eigenvalues --   -1.14569  -1.14449  -1.14397  -1.14377  -1.14347
 Alpha  occ. eigenvalues --   -1.14268  -1.13170  -1.13094  -1.13004  -1.12529
 Alpha  occ. eigenvalues --   -1.12454  -1.12353  -1.12338  -1.12277  -1.12243
 Alpha  occ. eigenvalues --   -0.21065  -0.13803  -0.12119  -0.11837
 Alpha virt. eigenvalues --   -0.07452  -0.03632  -0.03545  -0.03478  -0.02615
 Alpha virt. eigenvalues --   -0.02573  -0.02525  -0.00583  -0.00401  -0.00006
 Alpha virt. eigenvalues --    0.00292   0.00360   0.00448   0.00834   0.01120

  Beta  occ. eigenvalues --  -38.45972 -38.44857 -38.44554 -38.44422 -38.43243
  Beta  occ. eigenvalues --  -38.42694 -38.42529  -2.21774  -2.20970  -2.20649
  Beta  occ. eigenvalues --   -2.20576  -2.19394  -2.18770  -2.18619  -1.15487
  Beta  occ. eigenvalues --   -1.15403  -1.15389  -1.14894  -1.14782  -1.14540
  Beta  occ. eigenvalues --   -1.14472  -1.14330  -1.14270  -1.14252  -1.14235
  Beta  occ. eigenvalues --   -1.14158  -1.13160  -1.13010  -1.12989  -1.12521
  Beta  occ. eigenvalues --   -1.12389  -1.12342  -1.12327  -1.12233  -1.12208
  Beta  occ. eigenvalues --   -0.20184  -0.13691  -0.11457
  Beta virt. eigenvalues --   -0.07806  -0.07261  -0.03572  -0.03315  -0.02840
  Beta virt. eigenvalues --   -0.02491  -0.01723  -0.01634  -0.00544  -0.00143
  Beta virt. eigenvalues --    0.00049   0.00286   0.00439   0.00612   0.00881

 Mulliken charges and spin densities:
               1          2
     1  Na  -0.396128   0.416465
     2  Na  -0.094546  -0.026814
     3  Na   0.930872  -0.109904
     4  Na  -0.414009   0.300255
     5  Na   0.072938  -0.052030
     6  Na  -0.564591   0.352779
     7  Na   0.465464   0.119250
 Sum of Mulliken charges =  -0.00000   1.00000

 Dipole moment (field-independent basis, Debye):
    X=             -1.0455    Y=             -0.3198    Z=              0.1502  Tot=              1.1036
 Quadrupole moment (field-independent basis, Debye-Ang):
   XX=            -46.4973   YY=            -76.1646   ZZ=            -68.9801
   XY=              1.3453   XZ=              0.2638   YZ=             -0.4078

 Normal termination of Gaussian 16 at Mon Nov 13 18:10:17 2023.
