 Gaussian 16, Revision B.01,
 Gaussian 16:  ES64L-G16RevB.01 20-Dec-2017

 -------------------------
 #P B3LYP/6-311+g(d) force
 -------------------------

 ------------------------------
 Gaussian input prepared by ASE
 ------------------------------
 Symbolic Z-matrix:
 Charge =  0 Multiplicity = 2

                         Standard orientation:
 ---------------------------------------------------------------------
 Center     Atomic      Atomic             Coordinates (Angstroms)
 Number     Number       Type             X           Y           Z
 ---------------------------------------------------------------------
      1         11           0       -0.492075   -1.148802   -0.700519
      2         11           0       -3.319056   -0.263948   -1.171722
      3         11           0       -2.487147   -1.245219    1.533207
      4         11           0       -1.496328    1.398579    0.530122
      5         11           0        1.272907    2.545046    0.345337
      6         11           0        2.224790    0.077662   -1.080158
      7         11           0        4.296909   -1.363318    0.543733
 ---------------------------------------------------------------------

 SCF Done:  E(UB3LYP) =  -1136.09018629     A.U. after   27 cycles

 The electronic state is 2-A.
 Alpha  occ. eigenvalues --  -38.45555 -38.44947 -38.44443 -38.44433 -38.43745
 Alpha  occ. eigenvalues --  -38.43439 -38.43289  -2.21544  -2.21005  -2.20455
 Alpha  occ. eigenvalues --   -2.20238  -2.19719  -2.19524  -2.19182  -1.15279
 Alpha  occ. eigenvalues --   -1.15199  -1.15176  -1.14751  -1.14662  -1.14622
 Alpha  occ. eigenvalues --   -1.14143  -1.14090  -1.14046  -1.13948  -1.13879
 Alpha  occ. eigenvalues --   -1.13870  -1.13443  -1.13387  -1.13325  -1.13229
 Alpha  occ. eigenvalues --   -1.13216  -1.13153  -1.12842  -1.12812  -1.12794
 Alpha  occ. eigenvalues --   -0.19488  -0.14874  -0.11468  -0.10689
 Alpha virt. eigenvalues --   -0.07516  -0.05587  -0.04494  -0.03189  -0.02925
 Alpha virt. eigenvalues --   -0.02137  -0.01783  -0.01093  -0.00841  -0.00326
 Alpha virt. eigenvalues --   -0.00071   0.00224   0.00249   0.00561   0.00698

  Beta  occ. eigenvalues --  -38.45518 -38.44903 -38.44413 -38.44378 -38.43737
  Beta  occ. eigenvalues --  -38.43415 -38.43293  -2.21480  -2.20932  -2.20337
  Beta  occ. eigenvalues --   -2.20199  -2.19708  -2.19487  -2.19190  -1.15243
  Beta  occ. eigenvalues --   -1.15155  -1.15090  -1.14692  -1.14613  -1.14536
  Beta  occ. eigenvalues --   -1.14065  -1.14009  -1.13949  -1.13923  -1.13852
  Beta  occ. eigenvalues --   -1.13845  -1.13428  -1.13382  -1.13302  -1.13210
  Beta  occ. eigenvalues --   -1.13199  -1.13072  -1.12845  -1.12814  -1.12794
  Beta  occ. eigenvalues --   -0.18765  -0.14633  -0.11313
  Beta virt. eigenvalues --   -0.07263  -0.06712  -0.05437  -0.03978  -0.03069
  Beta virt. eigenvalues --   -0.02805  -0.01686  -0.01036  -0.00949  -0.00435
  Beta virt. eigenvalues --   -0.00191   0.00060   0.00295   0.00432   0.00615

 Mulliken charges and spin densities:
               1          2
     1  Na  -0.957809   0.647369
     2  Na   1.427148  -0.061143
     3  Na   0.048461   0.242548
     4  Na  -0.859279   0.262694
     5  Na  -0.237743   0.014923
     6  Na   0.916887  -0.170632
     7  Na  -0.337664   0.064241
 Sum of Mulliken charges =  -0.00000   1.00000

 Dipole moment (field-independent basis, Debye):
    X=             -1.0042    Y=             -0.1067    Z=              0.1367  Tot=              1.0190
 Quadrupole moment (field-independent basis, Debye-Ang):
   XX=            -52.3074   YY=            -71.7682   ZZ=            -72.5988
   XY=              1.5516   XZ=              5.6442   YZ=             -3.7587

 Normal termination of Gaussian 16 at Mon Nov 13 15:39:43 2023.
