 Gaussian 16, Revision B.01,
 Gaussian 16:  ES64L-G16RevB.01 20-Dec-2017

 -------------------------
 #P B3LYP/6-311+g(d) force
 -------------------------

 ------------------------------
 Gaussian input prepared by ASE
 ------------------------------
 Symbolic Z-matrix:
 Charge =  0 Multiplicity = 2

                         Standard orientation:
 ---------------------------------------------------------------------
 Center     Atomic      Atomic             Coordinates (Angstroms)
 Number     Number       Type             X           Y           Z
 ---------------------------------------------------------------------
      1         11           0       -0.965546    2.045662    0.222824
      2         11           0       -0.072208   -0.102462    1.742328
      3         11           0        4.121050   -0.090480    0.202060
      4         11           0        1.476656    0.467090   -0.821878
      5         11           0       -0.301648   -1.999717   -0.278626
      6         11           0       -1.424938    0.099947   -1.693044
      7         11           0       -2.833366   -0.420040    0.626335
 ---------------------------------------------------------------------

 SCF Done:  E(UB3LYP) =  -1136.07334192     A.U. after   31 cycles

 The electronic state is 2-A.
 Alpha  occ. eigenvalues --  -38.46169 -38.44991 -38.44767 -38.44479 -38.43298
 Alpha  occ. eigenvalues --  -38.42719 -38.42362  -2.21957  -2.21074  -2.20938
 Alpha  occ. eigenvalues --   -2.20714  -2.19429  -2.18835  -2.18490  -1.15684
 Alpha  occ. eigenvalues --   -1.15592  -1.15579  -1.14967  -1.14840  -1.14673
 Alpha  occ. eigenvalues --   -1.14640  -1.14599  -1.14477  -1.14431  -1.14341
 Alpha  occ. eigenvalues --   -1.14269  -1.13194  -1.13081  -1.13016  -1.12555
 Alpha  occ. eigenvalues --   -1.12503  -1.12376  -1.12202  -1.12152  -1.12066
 Alpha  occ. eigenvalues --   -0.21053  -0.14051  -0.12180  -0.11474
 Alpha virt. eigenvalues --   -0.07633  -0.03874  -0.03462  -0.03390  -0.02792
 Alpha virt. eigenvalues --   -0.02421  -0.02312  -0.00812  -0.00364   0.00016
 Alpha virt. eigenvalues --    0.00274   0.00377   0.00442   0.00847   0.01072

  Beta  occ. eigenvalues --  -38.46179 -38.44964 -38.44680 -38.44391 -38.43267
  Beta  occ. eigenvalues --  -38.42697 -38.42347  -2.21975  -2.21029  -2.20783
  Beta  occ. eigenvalues --   -2.20558  -2.19378  -2.18804  -2.18470  -1.15698
  Beta  occ. eigenvalues --   -1.15603  -1.15591  -1.14926  -1.14753  -1.14603
  Beta  occ. eigenvalues --   -1.14578  -1.14497  -1.14362  -1.14321  -1.14228
  Beta  occ. eigenvalues --   -1.14165  -1.13165  -1.12998  -1.12987  -1.12543
  Beta  occ. eigenvalues --   -1.12423  -1.12354  -1.12198  -1.12099  -1.12032
  Beta  occ. eigenvalues --   -0.20157  -0.13920  -0.11108
  Beta virt. eigenvalues --   -0.07804  -0.07500  -0.03477  -0.03253  -0.03147
  Beta virt. eigenvalues --   -0.02560  -0.01593  -0.01510  -0.00532  -0.00277
  Beta virt. eigenvalues --    0.00053   0.00320   0.00406   0.00543   0.00912

 Mulliken charges and spin densities:
               1          2
     1  Na  -0.924359  -0.037941
     2  Na   0.561869   0.756331
     3  Na   0.271217  -0.068878
     4  Na  -0.127521   0.151896
     5  Na  -0.945147  -0.115955
     6  Na   0.944620   0.282673
     7  Na   0.219322   0.031875
 Sum of Mulliken charges =  -0.00000   1.00000

 Dipole moment (field-independent basis, Debye):
    X=              1.1437    Y=             -0.1605    Z=              0.4149  Tot=              1.2272
 Quadrupole moment (field-independent basis, Debye-Ang):
   XX=            -43.7458   YY=            -79.2218   ZZ=            -68.1150
   XY=             -0.9145   XZ=              1.3569   YZ=             -0.3272

 Normal termination of Gaussian 16 at Mon Nov 13 17:55:58 2023.
