 Gaussian 16, Revision B.01,
 Gaussian 16:  ES64L-G16RevB.01 20-Dec-2017

 -------------------------
 #P B3LYP/6-311+g(d) force
 -------------------------

 ------------------------------
 Gaussian input prepared by ASE
 ------------------------------
 Symbolic Z-matrix:
 Charge =  0 Multiplicity = 2

                         Standard orientation:
 ---------------------------------------------------------------------
 Center     Atomic      Atomic             Coordinates (Angstroms)
 Number     Number       Type             X           Y           Z
 ---------------------------------------------------------------------
      1         11           0       -0.573036   -0.240393   -1.504151
      2         11           0        1.422456    1.368055    0.244177
      3         11           0        3.501955   -0.576123   -0.246859
      4         11           0        0.850647   -1.490976    0.450126
      5         11           0       -1.153245    2.112756   -0.269614
      6         11           0       -1.085979    0.086487    1.540383
      7         11           0       -2.962799   -1.259805   -0.214061
 ---------------------------------------------------------------------

 SCF Done:  E(UB3LYP) =  -1136.07049659     A.U. after   21 cycles

 The electronic state is 2-A.
 Alpha  occ. eigenvalues --  -38.45236 -38.44414 -38.44237 -38.44099 -38.43920
 Alpha  occ. eigenvalues --  -38.43330 -38.43154  -2.21149  -2.20509  -2.20362
 Alpha  occ. eigenvalues --   -2.20286  -2.20190  -2.19489  -2.19364  -1.14901
 Alpha  occ. eigenvalues --   -1.14833  -1.14752  -1.14513  -1.14328  -1.14250
 Alpha  occ. eigenvalues --   -1.14223  -1.14111  -1.13961  -1.13939  -1.13900
 Alpha  occ. eigenvalues --   -1.13854  -1.13791  -1.13707  -1.13646  -1.13379
 Alpha  occ. eigenvalues --   -1.13083  -1.13059  -1.13033  -1.12955  -1.12820
 Alpha  occ. eigenvalues --   -0.21134  -0.14623  -0.12062  -0.11471
 Alpha virt. eigenvalues --   -0.06835  -0.04481  -0.03741  -0.03366  -0.02373
 Alpha virt. eigenvalues --   -0.02310  -0.02122  -0.00833  -0.00203   0.00142
 Alpha virt. eigenvalues --    0.00412   0.00554   0.00821   0.00969   0.01021

  Beta  occ. eigenvalues --  -38.45240 -38.44404 -38.44161 -38.44066 -38.43836
  Beta  occ. eigenvalues --  -38.43312 -38.43135  -2.21158  -2.20381  -2.20343
  Beta  occ. eigenvalues --   -2.20226  -2.20046  -2.19464  -2.19338  -1.14907
  Beta  occ. eigenvalues --   -1.14840  -1.14746  -1.14446  -1.14252  -1.14182
  Beta  occ. eigenvalues --   -1.14123  -1.14060  -1.13938  -1.13861  -1.13851
  Beta  occ. eigenvalues --   -1.13801  -1.13720  -1.13604  -1.13564  -1.13364
  Beta  occ. eigenvalues --   -1.13056  -1.13022  -1.12988  -1.12872  -1.12809
  Beta  occ. eigenvalues --   -0.20316  -0.14397  -0.11742
  Beta virt. eigenvalues --   -0.07219  -0.06701  -0.04469  -0.03361  -0.02934
  Beta virt. eigenvalues --   -0.02273  -0.01556  -0.01115  -0.00758   0.00039
  Beta virt. eigenvalues --    0.00180   0.00409   0.00587   0.00965   0.01010

 Mulliken charges and spin densities:
               1          2
     1  Na  -0.812010   0.461118
     2  Na  -0.165352   0.160093
     3  Na   0.355854  -0.084176
     4  Na   0.241335   0.218840
     5  Na   0.532025   0.105489
     6  Na  -0.339019   0.178600
     7  Na   0.187168  -0.039964
 Sum of Mulliken charges =  -0.00000   1.00000

 Dipole moment (field-independent basis, Debye):
    X=              0.3484    Y=             -0.1616    Z=             -0.1439  Tot=              0.4101
 Quadrupole moment (field-independent basis, Debye-Ang):
   XX=            -46.9687   YY=            -73.6308   ZZ=            -72.3268
   XY=              0.0356   XZ=             -0.9208   YZ=              0.2378

 Normal termination of Gaussian 16 at Mon Nov 13 19:33:50 2023.
