 Gaussian 16, Revision B.01,
 Gaussian 16:  ES64L-G16RevB.01 20-Dec-2017

 -------------------------
 #P B3LYP/6-311+g(d) force
 -------------------------

 ------------------------------
 Gaussian input prepared by ASE
 ------------------------------
 Symbolic Z-matrix:
 Charge =  0 Multiplicity = 2

                         Standard orientation:
 ---------------------------------------------------------------------
 Center     Atomic      Atomic             Coordinates (Angstroms)
 Number     Number       Type             X           Y           Z
 ---------------------------------------------------------------------
      1         11           0        1.218468    1.432154    0.539854
      2         11           0       -1.037683    2.797308   -0.884092
      3         11           0       -4.120779   -1.081428    0.977936
      4         11           0       -1.439780    0.061709    0.274969
      5         11           0       -0.165021   -1.930071   -1.582175
      6         11           0        2.528093   -0.679666   -1.141363
      7         11           0        3.016703   -0.600006    1.814872
 ---------------------------------------------------------------------

 SCF Done:  E(UB3LYP) =  -1136.10190190     A.U. after   29 cycles

 The electronic state is 2-A.
 Alpha  occ. eigenvalues --  -38.44637 -38.44617 -38.44434 -38.44126 -38.43332
 Alpha  occ. eigenvalues --  -38.43203 -38.43120  -2.20556  -2.20441  -2.20422
 Alpha  occ. eigenvalues --   -2.20022  -2.19290  -2.19233  -2.19193  -1.14310
 Alpha  occ. eigenvalues --   -1.14227  -1.14162  -1.14132  -1.14127  -1.14093
 Alpha  occ. eigenvalues --   -1.14067  -1.14045  -1.14000  -1.13728  -1.13636
 Alpha  occ. eigenvalues --   -1.13632  -1.13126  -1.13024  -1.12971  -1.12950
 Alpha  occ. eigenvalues --   -1.12875  -1.12846  -1.12817  -1.12773  -1.12723
 Alpha  occ. eigenvalues --   -0.18847  -0.14126  -0.12053  -0.11500
 Alpha virt. eigenvalues --   -0.06230  -0.05070  -0.04035  -0.03626  -0.02755
 Alpha virt. eigenvalues --   -0.02405  -0.01908  -0.01124  -0.00500  -0.00136
 Alpha virt. eigenvalues --    0.00070   0.00255   0.00486   0.00648   0.00846

  Beta  occ. eigenvalues --  -38.44574 -38.44543 -38.44411 -38.44074 -38.43328
  Beta  occ. eigenvalues --  -38.43190 -38.43115  -2.20440  -2.20387  -2.20304
  Beta  occ. eigenvalues --   -2.19930  -2.19272  -2.19227  -2.19188  -1.14248
  Beta  occ. eigenvalues --   -1.14141  -1.14094  -1.14085  -1.14053  -1.14037
  Beta  occ. eigenvalues --   -1.13973  -1.13955  -1.13942  -1.13673  -1.13577
  Beta  occ. eigenvalues --   -1.13552  -1.13104  -1.13014  -1.12964  -1.12938
  Beta  occ. eigenvalues --   -1.12851  -1.12826  -1.12818  -1.12748  -1.12717
  Beta  occ. eigenvalues --   -0.18268  -0.13505  -0.11620
  Beta virt. eigenvalues --   -0.07963  -0.05887  -0.04764  -0.03765  -0.03329
  Beta virt. eigenvalues --   -0.02401  -0.01906  -0.01509  -0.00925  -0.00242
  Beta virt. eigenvalues --    0.00088   0.00178   0.00441   0.00566   0.00782

 Mulliken charges and spin densities:
               1          2
     1  Na   1.428601   0.570642
     2  Na   2.123428   0.093088
     3  Na  -1.200247   0.153073
     4  Na  -3.185669   0.101993
     5  Na   0.480231   0.256406
     6  Na   0.204730  -0.238952
     7  Na   0.148926   0.063750
 Sum of Mulliken charges =  -0.00000   1.00000

 Dipole moment (field-independent basis, Debye):
    X=              0.2850    Y=             -0.2718    Z=             -0.1230  Tot=              0.4126
 Quadrupole moment (field-independent basis, Debye-Ang):
   XX=            -58.0081   YY=            -71.5614   ZZ=            -65.2996
   XY=             -2.1748   XZ=              0.4111   YZ=             -4.1286

 Normal termination of Gaussian 16 at Mon Nov 13 15:13:53 2023.
