 Gaussian 16, Revision B.01,
 Gaussian 16:  ES64L-G16RevB.01 20-Dec-2017

 -------------------------
 #P B3LYP/6-311+g(d) force
 -------------------------

 ------------------------------
 Gaussian input prepared by ASE
 ------------------------------
 Symbolic Z-matrix:
 Charge =  0 Multiplicity = 2

                         Standard orientation:
 ---------------------------------------------------------------------
 Center     Atomic      Atomic             Coordinates (Angstroms)
 Number     Number       Type             X           Y           Z
 ---------------------------------------------------------------------
      1         11           0       -0.429507   -1.117163   -0.409877
      2         11           0        1.051179   -0.156813    2.022050
      3         11           0        2.466192   -1.775434   -0.062318
      4         11           0        1.669270    0.561969   -1.757655
      5         11           0        0.697321    2.375010    0.436811
      6         11           0       -2.063402    1.393895   -0.222254
      7         11           0       -3.391054   -1.281464   -0.006757
 ---------------------------------------------------------------------

 SCF Done:  E(UB3LYP) =  -1136.10762273     A.U. after   21 cycles

 The electronic state is 2-A.
 Alpha  occ. eigenvalues --  -38.44358 -38.44287 -38.44021 -38.43757 -38.43681
 Alpha  occ. eigenvalues --  -38.43220 -38.42674  -2.20382  -2.20309  -2.19913
 Alpha  occ. eigenvalues --   -2.19745  -2.19673  -2.19401  -2.18682  -1.14099
 Alpha  occ. eigenvalues --   -1.14031  -1.14021  -1.14001  -1.13945  -1.13940
 Alpha  occ. eigenvalues --   -1.13694  -1.13601  -1.13535  -1.13491  -1.13387
 Alpha  occ. eigenvalues --   -1.13380  -1.13335  -1.13315  -1.13292  -1.13085
 Alpha  occ. eigenvalues --   -1.13042  -1.12968  -1.12350  -1.12337  -1.12323
 Alpha  occ. eigenvalues --   -0.20037  -0.14050  -0.12192  -0.11755
 Alpha virt. eigenvalues --   -0.05896  -0.04932  -0.03581  -0.03554  -0.03096
 Alpha virt. eigenvalues --   -0.02843  -0.01647  -0.00885  -0.00276   0.00261
 Alpha virt. eigenvalues --    0.00295   0.00554   0.00853   0.00890   0.00971

  Beta  occ. eigenvalues --  -38.44258 -38.44205 -38.44026 -38.43756 -38.43670
  Beta  occ. eigenvalues --  -38.43197 -38.42660  -2.20198  -2.20159  -2.19924
  Beta  occ. eigenvalues --   -2.19744  -2.19658  -2.19366  -2.18663  -1.13988
  Beta  occ. eigenvalues --   -1.13928  -1.13886  -1.13876  -1.13841  -1.13831
  Beta  occ. eigenvalues --   -1.13698  -1.13609  -1.13538  -1.13491  -1.13377
  Beta  occ. eigenvalues --   -1.13367  -1.13338  -1.13287  -1.13249  -1.13034
  Beta  occ. eigenvalues --   -1.12989  -1.12954  -1.12338  -1.12322  -1.12273
  Beta  occ. eigenvalues --   -0.19245  -0.13857  -0.11921
  Beta virt. eigenvalues --   -0.07597  -0.05657  -0.04915  -0.03589  -0.02873
  Beta virt. eigenvalues --   -0.02131  -0.01984  -0.01518  -0.00827  -0.00010
  Beta virt. eigenvalues --    0.00275   0.00322   0.00598   0.00887   0.00969

 Mulliken charges and spin densities:
               1          2
     1  Na  -0.932033   0.598747
     2  Na  -0.120257   0.336972
     3  Na   0.132960  -0.222993
     4  Na   0.038370   0.223763
     5  Na   0.199322   0.067973
     6  Na  -0.317597   0.068694
     7  Na   0.999236  -0.073156
 Sum of Mulliken charges =  -0.00000   1.00000

 Dipole moment (field-independent basis, Debye):
    X=             -0.0891    Y=             -0.0490    Z=              0.1505  Tot=              0.1816
 Quadrupole moment (field-independent basis, Debye-Ang):
   XX=            -55.8307   YY=            -70.3420   ZZ=            -69.0161
   XY=             -0.1288   XZ=             -1.1245   YZ=             -0.8994

 Normal termination of Gaussian 16 at Mon Nov 13 15:57:40 2023.
