 Gaussian 16, Revision B.01,
 Gaussian 16:  ES64L-G16RevB.01 20-Dec-2017

 -------------------------
 #P B3LYP/6-311+g(d) force
 -------------------------

 ------------------------------
 Gaussian input prepared by ASE
 ------------------------------
 Symbolic Z-matrix:
 Charge =  0 Multiplicity = 2

                         Standard orientation:
 ---------------------------------------------------------------------
 Center     Atomic      Atomic             Coordinates (Angstroms)
 Number     Number       Type             X           Y           Z
 ---------------------------------------------------------------------
      1         11           0       -2.435495   -1.303433   -1.265879
      2         11           0        3.619128   -2.396451    0.242139
      3         11           0        3.372311    2.515965    0.226295
      4         11           0        2.011023   -0.017814   -0.631620
      5         11           0       -0.603198   -0.197033    0.834030
      6         11           0       -3.565235   -0.245052    1.304544
      7         11           0       -2.398535    1.643818   -0.709509
 ---------------------------------------------------------------------

 SCF Done:  E(UB3LYP) =  -1136.07570116     A.U. after   36 cycles

 The electronic state is 2-A.
 Alpha  occ. eigenvalues --  -38.45807 -38.45453 -38.45110 -38.44696 -38.44339
 Alpha  occ. eigenvalues --  -38.44332 -38.43340  -2.21849  -2.21425  -2.21108
 Alpha  occ. eigenvalues --   -2.20722  -2.20138  -2.20127  -2.19323  -1.15612
 Alpha  occ. eigenvalues --   -1.15583  -1.15474  -1.15148  -1.15085  -1.15070
 Alpha  occ. eigenvalues --   -1.14791  -1.14755  -1.14707  -1.14369  -1.14334
 Alpha  occ. eigenvalues --   -1.14313  -1.13852  -1.13842  -1.13781  -1.13772
 Alpha  occ. eigenvalues --   -1.13763  -1.13751  -1.13070  -1.12959  -1.12909
 Alpha  occ. eigenvalues --   -0.19476  -0.14938  -0.10908  -0.10564
 Alpha virt. eigenvalues --   -0.07608  -0.07197  -0.04051  -0.03309  -0.02951
 Alpha virt. eigenvalues --   -0.01906  -0.01876  -0.01580  -0.01339  -0.00533
 Alpha virt. eigenvalues --   -0.00206  -0.00083   0.00111   0.00308   0.00397

  Beta  occ. eigenvalues --  -38.45788 -38.45436 -38.45063 -38.44619 -38.44320
  Beta  occ. eigenvalues --  -38.44318 -38.43335  -2.21823  -2.21402  -2.21027
  Beta  occ. eigenvalues --   -2.20580  -2.20103  -2.20101  -2.19316  -1.15604
  Beta  occ. eigenvalues --   -1.15495  -1.15468  -1.15137  -1.15062  -1.15004
  Beta  occ. eigenvalues --   -1.14741  -1.14694  -1.14629  -1.14272  -1.14239
  Beta  occ. eigenvalues --   -1.14214  -1.13831  -1.13823  -1.13756  -1.13753
  Beta  occ. eigenvalues --   -1.13739  -1.13733  -1.13064  -1.12943  -1.12899
  Beta  occ. eigenvalues --   -0.18785  -0.14699  -0.10425
  Beta virt. eigenvalues --   -0.07376  -0.07166  -0.06608  -0.03695  -0.03175
  Beta virt. eigenvalues --   -0.02761  -0.01832  -0.01243  -0.01188  -0.00754
  Beta virt. eigenvalues --   -0.00261  -0.00054   0.00018   0.00204   0.00305

 Mulliken charges and spin densities:
               1          2
     1  Na   0.066957   0.471983
     2  Na  -0.039508   0.113889
     3  Na  -0.138751   0.083325
     4  Na   0.995974   0.189457
     5  Na  -1.745049  -0.213969
     6  Na   0.524743   0.132100
     7  Na   0.335634   0.223214
 Sum of Mulliken charges =  -0.00000   1.00000

 Dipole moment (field-independent basis, Debye):
    X=             -1.3292    Y=              0.0239    Z=             -0.3325  Tot=              1.3704
 Quadrupole moment (field-independent basis, Debye-Ang):
   XX=            -50.2247   YY=            -72.5360   ZZ=            -74.2871
   XY=              0.1663   XZ=              4.8780   YZ=             -0.0967

 Normal termination of Gaussian 16 at Mon Nov 13 17:17:48 2023.
