 Gaussian 16, Revision B.01,
 Gaussian 16:  ES64L-G16RevB.01 20-Dec-2017

 -------------------------
 #P B3LYP/6-311+g(d) force
 -------------------------

 ------------------------------
 Gaussian input prepared by ASE
 ------------------------------
 Symbolic Z-matrix:
 Charge =  0 Multiplicity = 2

                         Standard orientation:
 ---------------------------------------------------------------------
 Center     Atomic      Atomic             Coordinates (Angstroms)
 Number     Number       Type             X           Y           Z
 ---------------------------------------------------------------------
      1         11           0        0.462060   -0.189008    1.417258
      2         11           0       -0.524903   -1.695095   -0.985008
      3         11           0       -2.443461   -0.914914    1.175414
      4         11           0       -2.215173    0.767223   -1.299822
      5         11           0       -0.203880    2.457382    0.160988
      6         11           0        2.533079    1.283278   -0.175770
      7         11           0        2.392278   -1.708867   -0.293060
 ---------------------------------------------------------------------

 SCF Done:  E(UB3LYP) =  -1136.10697143     A.U. after   19 cycles

 The electronic state is 2-A.
 Alpha  occ. eigenvalues --  -38.44300 -38.44184 -38.44033 -38.43827 -38.43398
 Alpha  occ. eigenvalues --  -38.43376 -38.43065  -2.20298  -2.20156  -2.20034
 Alpha  occ. eigenvalues --   -2.19803  -2.19585  -2.19469  -2.19042  -1.14057
 Alpha  occ. eigenvalues --   -1.13995  -1.13919  -1.13909  -1.13859  -1.13784
 Alpha  occ. eigenvalues --   -1.13728  -1.13693  -1.13627  -1.13576  -1.13466
 Alpha  occ. eigenvalues --   -1.13413  -1.13318  -1.13233  -1.13185  -1.13092
 Alpha  occ. eigenvalues --   -1.13081  -1.13058  -1.12714  -1.12688  -1.12662
 Alpha  occ. eigenvalues --   -0.20144  -0.14301  -0.12543  -0.11224
 Alpha virt. eigenvalues --   -0.05816  -0.05089  -0.04200  -0.03814  -0.02765
 Alpha virt. eigenvalues --   -0.02264  -0.01531  -0.00645  -0.00149   0.00260
 Alpha virt. eigenvalues --    0.00337   0.00380   0.00809   0.00927   0.00937

  Beta  occ. eigenvalues --  -38.44257 -38.44181 -38.43986 -38.43820 -38.43366
  Beta  occ. eigenvalues --  -38.43307 -38.43057  -2.20223  -2.20154  -2.19948
  Beta  occ. eigenvalues --   -2.19792  -2.19464  -2.19415  -2.19031  -1.14013
  Beta  occ. eigenvalues --   -1.13921  -1.13900  -1.13859  -1.13858  -1.13767
  Beta  occ. eigenvalues --   -1.13664  -1.13630  -1.13562  -1.13559  -1.13443
  Beta  occ. eigenvalues --   -1.13402  -1.13258  -1.13156  -1.13089  -1.13051
  Beta  occ. eigenvalues --   -1.13029  -1.12992  -1.12705  -1.12674  -1.12631
  Beta  occ. eigenvalues --   -0.19440  -0.14056  -0.12293
  Beta virt. eigenvalues --   -0.07142  -0.05718  -0.04992  -0.04066  -0.03169
  Beta virt. eigenvalues --   -0.02071  -0.01501  -0.01147  -0.00576   0.00084
  Beta virt. eigenvalues --    0.00251   0.00394   0.00406   0.00864   0.00952

 Mulliken charges and spin densities:
               1          2
     1  Na  -0.924564   0.009058
     2  Na  -0.202686   0.590720
     3  Na   0.379091   0.068151
     4  Na  -0.061377   0.003570
     5  Na   0.285759   0.280258
     6  Na  -0.099419   0.040607
     7  Na   0.623197   0.007636
 Sum of Mulliken charges =  -0.00000   1.00000

 Dipole moment (field-independent basis, Debye):
    X=              0.0496    Y=             -0.0348    Z=             -0.1940  Tot=              0.2033
 Quadrupole moment (field-independent basis, Debye-Ang):
   XX=            -54.6248   YY=            -69.7294   ZZ=            -71.5949
   XY=             -0.0155   XZ=             -1.9715   YZ=             -0.8630

 Normal termination of Gaussian 16 at Mon Nov 13 16:50:18 2023.
