 Gaussian 16, Revision B.01,
 Gaussian 16:  ES64L-G16RevB.01 20-Dec-2017

 -------------------------
 #P B3LYP/6-311+g(d) force
 -------------------------

 ------------------------------
 Gaussian input prepared by ASE
 ------------------------------
 Symbolic Z-matrix:
 Charge =  0 Multiplicity = 2

                         Standard orientation:
 ---------------------------------------------------------------------
 Center     Atomic      Atomic             Coordinates (Angstroms)
 Number     Number       Type             X           Y           Z
 ---------------------------------------------------------------------
      1         11           0       -1.341911    1.612835    2.462916
      2         11           0       -0.443707    3.149767   -2.028134
      3         11           0       -3.153334   -3.029501   -0.842478
      4         11           0       -2.278368   -0.568602    0.631003
      5         11           0        0.193938    0.996774   -0.036795
      6         11           0        2.183542   -1.121954   -0.789062
      7         11           0        4.839840   -1.039319    0.602550
 ---------------------------------------------------------------------

 SCF Done:  E(UB3LYP) =  -1136.09581945     A.U. after   28 cycles

 The electronic state is 2-A.
 Alpha  occ. eigenvalues --  -38.45005 -38.44918 -38.44836 -38.44369 -38.44039
 Alpha  occ. eigenvalues --  -38.43371 -38.43117  -2.20927  -2.20714  -2.20658
 Alpha  occ. eigenvalues --   -2.20229  -2.20086  -2.19191  -2.19094  -1.14628
 Alpha  occ. eigenvalues --   -1.14570  -1.14509  -1.14417  -1.14361  -1.14358
 Alpha  occ. eigenvalues --   -1.14356  -1.14286  -1.14271  -1.14010  -1.13855
 Alpha  occ. eigenvalues --   -1.13839  -1.13765  -1.13739  -1.13685  -1.12964
 Alpha  occ. eigenvalues --   -1.12828  -1.12826  -1.12769  -1.12725  -1.12682
 Alpha  occ. eigenvalues --   -0.17786  -0.13583  -0.12260  -0.11480
 Alpha virt. eigenvalues --   -0.06956  -0.04794  -0.04144  -0.03469  -0.03085
 Alpha virt. eigenvalues --   -0.02389  -0.01863  -0.01279  -0.01193  -0.00640
 Alpha virt. eigenvalues --   -0.00179  -0.00093   0.00325   0.00509   0.00630

  Beta  occ. eigenvalues --  -38.44911 -38.44910 -38.44762 -38.44368 -38.44027
  Beta  occ. eigenvalues --  -38.43341 -38.43106  -2.20750  -2.20700  -2.20522
  Beta  occ. eigenvalues --   -2.20229  -2.20073  -2.19135  -2.19082  -1.14509
  Beta  occ. eigenvalues --   -1.14451  -1.14409  -1.14390  -1.14351  -1.14347
  Beta  occ. eigenvalues --   -1.14266  -1.14193  -1.14178  -1.14008  -1.13849
  Beta  occ. eigenvalues --   -1.13836  -1.13757  -1.13690  -1.13659  -1.12920
  Beta  occ. eigenvalues --   -1.12793  -1.12791  -1.12763  -1.12713  -1.12632
  Beta  occ. eigenvalues --   -0.17130  -0.13283  -0.11557
  Beta virt. eigenvalues --   -0.08079  -0.06638  -0.04428  -0.03797  -0.03106
  Beta virt. eigenvalues --   -0.02929  -0.01958  -0.01691  -0.01025  -0.00813
  Beta virt. eigenvalues --   -0.00420  -0.00043   0.00153   0.00399   0.00654

 Mulliken charges and spin densities:
               1          2
     1  Na   2.955516   0.017258
     2  Na   0.319113   0.188974
     3  Na  -0.433467  -0.088047
     4  Na  -1.033036   0.493162
     5  Na  -2.770040   0.492049
     6  Na   0.577172  -0.102470
     7  Na   0.384742  -0.000926
 Sum of Mulliken charges =  -0.00000   1.00000

 Dipole moment (field-independent basis, Debye):
    X=              1.3287    Y=              1.2684    Z=              0.4736  Tot=              1.8970
 Quadrupole moment (field-independent basis, Debye-Ang):
   XX=            -60.7362   YY=            -66.0714   ZZ=            -64.4527
   XY=             -4.3331   XZ=              4.3151   YZ=              2.1860

 Normal termination of Gaussian 16 at Mon Nov 13 15:21:04 2023.
