 Gaussian 16, Revision B.01,
 Gaussian 16:  ES64L-G16RevB.01 20-Dec-2017

 -------------------------
 #P B3LYP/6-311+g(d) force
 -------------------------

 ------------------------------
 Gaussian input prepared by ASE
 ------------------------------
 Symbolic Z-matrix:
 Charge =  0 Multiplicity = 2

                         Standard orientation:
 ---------------------------------------------------------------------
 Center     Atomic      Atomic             Coordinates (Angstroms)
 Number     Number       Type             X           Y           Z
 ---------------------------------------------------------------------
      1         11           0        0.000401    0.003560   -0.933423
      2         11           0        2.253886    1.726292    0.054531
      3         11           0        2.833390   -0.964605   -1.132034
      4         11           0        1.497769   -0.764294    1.545813
      5         11           0       -1.507439   -0.790259    1.535138
      6         11           0       -2.239317    1.728966    0.077333
      7         11           0       -2.838690   -0.939661   -1.147358
 ---------------------------------------------------------------------

 SCF Done:  E(UB3LYP) =  -1136.08893301     A.U. after   23 cycles

 The electronic state is 2-A.
 Alpha  occ. eigenvalues --  -38.44810 -38.44790 -38.44718 -38.44703 -38.43446
 Alpha  occ. eigenvalues --  -38.42575 -38.42572  -2.20796  -2.20776  -2.20699
 Alpha  occ. eigenvalues --   -2.20685  -2.19719  -2.18656  -2.18644  -1.14595
 Alpha  occ. eigenvalues --   -1.14563  -1.14471  -1.14454  -1.14422  -1.14407
 Alpha  occ. eigenvalues --   -1.14394  -1.14378  -1.14334  -1.14321  -1.14238
 Alpha  occ. eigenvalues --   -1.14233  -1.13430  -1.13397  -1.13357  -1.12433
 Alpha  occ. eigenvalues --   -1.12335  -1.12328  -1.12307  -1.12275  -1.12169
 Alpha  occ. eigenvalues --   -0.20174  -0.15486  -0.11418  -0.10731
 Alpha virt. eigenvalues --   -0.06456  -0.05817  -0.04654  -0.03021  -0.02236
 Alpha virt. eigenvalues --   -0.02001  -0.01908  -0.01017  -0.00296  -0.00008
 Alpha virt. eigenvalues --    0.00299   0.00429   0.00588   0.00696   0.00775

  Beta  occ. eigenvalues --  -38.44777 -38.44758 -38.44685 -38.44671 -38.43404
  Beta  occ. eigenvalues --  -38.42565 -38.42562  -2.20736  -2.20717  -2.20640
  Beta  occ. eigenvalues --   -2.20626  -2.19655  -2.18642  -2.18629  -1.14562
  Beta  occ. eigenvalues --   -1.14531  -1.14419  -1.14403  -1.14377  -1.14363
  Beta  occ. eigenvalues --   -1.14344  -1.14332  -1.14289  -1.14277  -1.14189
  Beta  occ. eigenvalues --   -1.14184  -1.13364  -1.13348  -1.13263  -1.12433
  Beta  occ. eigenvalues --   -1.12333  -1.12323  -1.12253  -1.12224  -1.12168
  Beta  occ. eigenvalues --   -0.19381  -0.15300  -0.10559
  Beta virt. eigenvalues --   -0.07519  -0.06211  -0.04915  -0.04562  -0.02730
  Beta virt. eigenvalues --   -0.02160  -0.01473  -0.01356  -0.00407  -0.00271
  Beta virt. eigenvalues --    0.00227   0.00331   0.00562   0.00700   0.00773

 Mulliken charges and spin densities:
               1          2
     1  Na  -1.304516   0.504788
     2  Na   0.046171   0.210689
     3  Na   0.680050  -0.108987
     4  Na  -0.050109   0.159321
     5  Na  -0.091856   0.130173
     6  Na   0.020555   0.233852
     7  Na   0.699704  -0.129837
 Sum of Mulliken charges =  -0.00000   1.00000

 Dipole moment (field-independent basis, Debye):
    X=              0.0061    Y=              0.1712    Z=             -0.0526  Tot=              0.1792
 Quadrupole moment (field-independent basis, Debye-Ang):
   XX=            -49.0923   YY=            -67.0604   ZZ=            -77.6876
   XY=             -0.0145   XZ=             -0.0145   YZ=              7.7881

 Normal termination of Gaussian 16 at Mon Nov 13 17:38:35 2023.
