 Gaussian 16, Revision B.01,
 Gaussian 16:  ES64L-G16RevB.01 20-Dec-2017

 -------------------------
 #P B3LYP/6-311+g(d) force
 -------------------------

 ------------------------------
 Gaussian input prepared by ASE
 ------------------------------
 Symbolic Z-matrix:
 Charge =  0 Multiplicity = 2

                         Standard orientation:
 ---------------------------------------------------------------------
 Center     Atomic      Atomic             Coordinates (Angstroms)
 Number     Number       Type             X           Y           Z
 ---------------------------------------------------------------------
      1         11           0       -0.758283    1.629042    0.673827
      2         11           0       -0.425611   -0.113323   -1.547525
      3         11           0       -3.094935    0.137111   -0.324634
      4         11           0       -0.950959   -1.512905    0.849523
      5         11           0        1.323449   -0.035440    1.635588
      6         11           0        1.817408   -1.612553   -0.658591
      7         11           0        2.088931    1.508068   -0.628188
 ---------------------------------------------------------------------

 SCF Done:  E(UB3LYP) =  -1136.08496879     A.U. after   21 cycles

 The electronic state is 2-A.
 Alpha  occ. eigenvalues --  -38.44546 -38.44338 -38.44067 -38.43442 -38.43369
 Alpha  occ. eigenvalues --  -38.43156 -38.42975  -2.20570  -2.20547  -2.20350
 Alpha  occ. eigenvalues --   -2.19494  -2.19462  -2.19344  -2.19155  -1.14376
 Alpha  occ. eigenvalues --   -1.14361  -1.14289  -1.14216  -1.14213  -1.14176
 Alpha  occ. eigenvalues --   -1.14112  -1.14004  -1.13945  -1.13212  -1.13150
 Alpha  occ. eigenvalues --   -1.13143  -1.13124  -1.13114  -1.13060  -1.13003
 Alpha  occ. eigenvalues --   -1.12984  -1.12896  -1.12837  -1.12804  -1.12699
 Alpha  occ. eigenvalues --   -0.21414  -0.14429  -0.12436  -0.11912
 Alpha virt. eigenvalues --   -0.05893  -0.04132  -0.04080  -0.03486  -0.02733
 Alpha virt. eigenvalues --   -0.02639  -0.01564  -0.00409  -0.00284   0.00291
 Alpha virt. eigenvalues --    0.00628   0.00828   0.00926   0.01042   0.01066

  Beta  occ. eigenvalues --  -38.44542 -38.44261 -38.43994 -38.43424 -38.43348
  Beta  occ. eigenvalues --  -38.43120 -38.42945  -2.20540  -2.20434  -2.20219
  Beta  occ. eigenvalues --   -2.19465  -2.19428  -2.19286  -2.19109  -1.14349
  Beta  occ. eigenvalues --   -1.14272  -1.14188  -1.14179  -1.14177  -1.14114
  Beta  occ. eigenvalues --   -1.14035  -1.13917  -1.13852  -1.13192  -1.13129
  Beta  occ. eigenvalues --   -1.13110  -1.13088  -1.13056  -1.13023  -1.12970
  Beta  occ. eigenvalues --   -1.12900  -1.12861  -1.12807  -1.12727  -1.12662
  Beta  occ. eigenvalues --   -0.20572  -0.14170  -0.11647
  Beta virt. eigenvalues --   -0.08037  -0.05806  -0.04123  -0.03353  -0.03177
  Beta virt. eigenvalues --   -0.01963  -0.01672  -0.01468  -0.00380  -0.00039
  Beta virt. eigenvalues --    0.00324   0.00677   0.00818   0.01044   0.01055

 Mulliken charges and spin densities:
               1          2
     1  Na  -0.696953   0.164059
     2  Na  -0.031749   0.409169
     3  Na   0.972973  -0.008253
     4  Na  -0.679740   0.166640
     5  Na   0.831425   0.266265
     6  Na  -0.161809   0.000906
     7  Na  -0.234147   0.001213
 Sum of Mulliken charges =  -0.00000   1.00000

 Dipole moment (field-independent basis, Debye):
    X=             -0.3301    Y=              0.0418    Z=             -0.1999  Tot=              0.3882
 Quadrupole moment (field-independent basis, Debye-Ang):
   XX=            -53.5307   YY=            -74.9524   ZZ=            -66.9490
   XY=              0.0092   XZ=             -0.7135   YZ=             -0.5102

 Normal termination of Gaussian 16 at Mon Nov 13 20:01:37 2023.
