 Gaussian 16, Revision B.01,
 Gaussian 16:  ES64L-G16RevB.01 20-Dec-2017

 -------------------------
 #P B3LYP/6-311+g(d) force
 -------------------------

 ------------------------------
 Gaussian input prepared by ASE
 ------------------------------
 Symbolic Z-matrix:
 Charge =  0 Multiplicity = 2

                         Standard orientation:
 ---------------------------------------------------------------------
 Center     Atomic      Atomic             Coordinates (Angstroms)
 Number     Number       Type             X           Y           Z
 ---------------------------------------------------------------------
      1         11           0       -0.301921   -0.697485   -1.455915
      2         11           0        0.075415   -1.194208    1.482882
      3         11           0       -3.229404   -1.076734   -0.893192
      4         11           0       -2.353298    0.578704    1.452859
      5         11           0       -0.702392    2.127669   -0.523618
      6         11           0        1.876554    0.709102    0.033560
      7         11           0        4.635047   -0.447047   -0.096575
 ---------------------------------------------------------------------

 SCF Done:  E(UB3LYP) =  -1136.08732685     A.U. after   29 cycles

 The electronic state is 2-A.
 Alpha  occ. eigenvalues --  -38.45789 -38.45377 -38.44871 -38.44779 -38.43851
 Alpha  occ. eigenvalues --  -38.43152 -38.42128  -2.21572  -2.21345  -2.20882
 Alpha  occ. eigenvalues --   -2.20871  -2.19767  -2.19239  -2.18149  -1.15279
 Alpha  occ. eigenvalues --   -1.15216  -1.15195  -1.15114  -1.15015  -1.14948
 Alpha  occ. eigenvalues --   -1.14587  -1.14572  -1.14532  -1.14503  -1.14491
 Alpha  occ. eigenvalues --   -1.14485  -1.13449  -1.13433  -1.13354  -1.12998
 Alpha  occ. eigenvalues --   -1.12895  -1.12835  -1.11833  -1.11820  -1.11763
 Alpha  occ. eigenvalues --   -0.19989  -0.14285  -0.11772  -0.11031
 Alpha virt. eigenvalues --   -0.08237  -0.04256  -0.03956  -0.03411  -0.03245
 Alpha virt. eigenvalues --   -0.02356  -0.02140  -0.01387  -0.00870  -0.00304
 Alpha virt. eigenvalues --    0.00140   0.00258   0.00319   0.00723   0.00926

  Beta  occ. eigenvalues --  -38.45790 -38.45312 -38.44822 -38.44713 -38.43820
  Beta  occ. eigenvalues --  -38.43143 -38.42118  -2.21572  -2.21231  -2.20795
  Beta  occ. eigenvalues --   -2.20754  -2.19713  -2.19226  -2.18136  -1.15280
  Beta  occ. eigenvalues --   -1.15215  -1.15195  -1.15036  -1.14912  -1.14868
  Beta  occ. eigenvalues --   -1.14497  -1.14486  -1.14459  -1.14438  -1.14429
  Beta  occ. eigenvalues --   -1.14393  -1.13406  -1.13387  -1.13313  -1.12990
  Beta  occ. eigenvalues --   -1.12852  -1.12832  -1.11820  -1.11812  -1.11729
  Beta  occ. eigenvalues --   -0.19207  -0.14084  -0.10828
  Beta virt. eigenvalues --   -0.08154  -0.07502  -0.04138  -0.03381  -0.03333
  Beta virt. eigenvalues --   -0.02825  -0.01657  -0.01405  -0.01223  -0.00629
  Beta virt. eigenvalues --   -0.00270   0.00157   0.00317   0.00439   0.00777

 Mulliken charges and spin densities:
               1          2
     1  Na  -0.273628   0.425858
     2  Na  -0.291146   0.445397
     3  Na  -0.246596  -0.087644
     4  Na   0.696863   0.084576
     5  Na   0.510662   0.085369
     6  Na  -0.498113   0.055787
     7  Na   0.101958  -0.009343
 Sum of Mulliken charges =  -0.00000   1.00000

 Dipole moment (field-independent basis, Debye):
    X=              0.7690    Y=              0.2294    Z=              0.1796  Tot=              0.8224
 Quadrupole moment (field-independent basis, Debye-Ang):
   XX=            -48.1176   YY=            -75.9046   ZZ=            -70.5350
   XY=             -4.7747   XZ=             -1.5733   YZ=              1.2537

 Normal termination of Gaussian 16 at Mon Nov 13 16:21:24 2023.
