 Gaussian 16, Revision B.01,
 Gaussian 16:  ES64L-G16RevB.01 20-Dec-2017

 -------------------------
 #P B3LYP/6-311+g(d) force
 -------------------------

 ------------------------------
 Gaussian input prepared by ASE
 ------------------------------
 Symbolic Z-matrix:
 Charge =  0 Multiplicity = 2

                         Standard orientation:
 ---------------------------------------------------------------------
 Center     Atomic      Atomic             Coordinates (Angstroms)
 Number     Number       Type             X           Y           Z
 ---------------------------------------------------------------------
      1         11           0        0.744116    1.155327   -0.479955
      2         11           0       -0.844404   -0.863883   -1.474131
      3         11           0        3.524108    0.623295    0.249358
      4         11           0        1.662464   -1.590980   -0.156514
      5         11           0       -0.343354   -0.339209    1.565027
      6         11           0       -1.917249    1.774593   -0.145109
      7         11           0       -2.825681   -0.759142    0.441323
 ---------------------------------------------------------------------

 SCF Done:  E(UB3LYP) =  -1136.06230686     A.U. after   26 cycles

 The electronic state is 2-A.
 Alpha  occ. eigenvalues --  -38.45662 -38.45638 -38.44431 -38.43740 -38.43506
 Alpha  occ. eigenvalues --  -38.43459 -38.43376  -2.21762  -2.21534  -2.20655
 Alpha  occ. eigenvalues --   -2.20054  -2.19746  -2.19575  -2.19488  -1.15576
 Alpha  occ. eigenvalues --   -1.15463  -1.15370  -1.15267  -1.15205  -1.15148
 Alpha  occ. eigenvalues --   -1.14551  -1.14295  -1.14209  -1.13944  -1.13822
 Alpha  occ. eigenvalues --   -1.13651  -1.13453  -1.13368  -1.13293  -1.13239
 Alpha  occ. eigenvalues --   -1.13185  -1.13154  -1.13113  -1.13091  -1.13047
 Alpha  occ. eigenvalues --   -0.21246  -0.15222  -0.11662  -0.11397
 Alpha virt. eigenvalues --   -0.07277  -0.04590  -0.04196  -0.03061  -0.02749
 Alpha virt. eigenvalues --   -0.01991  -0.01920  -0.00706  -0.00296   0.00105
 Alpha virt. eigenvalues --    0.00279   0.00508   0.00621   0.00885   0.00930

  Beta  occ. eigenvalues --  -38.45646 -38.45630 -38.44362 -38.43693 -38.43449
  Beta  occ. eigenvalues --  -38.43431 -38.43359  -2.21708  -2.21550  -2.20531
  Beta  occ. eigenvalues --   -2.19979  -2.19615  -2.19559  -2.19465  -1.15545
  Beta  occ. eigenvalues --   -1.15377  -1.15339  -1.15279  -1.15217  -1.15149
  Beta  occ. eigenvalues --   -1.14469  -1.14205  -1.14123  -1.13865  -1.13773
  Beta  occ. eigenvalues --   -1.13551  -1.13385  -1.13297  -1.13240  -1.13168
  Beta  occ. eigenvalues --   -1.13154  -1.13140  -1.13069  -1.13058  -1.12978
  Beta  occ. eigenvalues --   -0.20428  -0.14938  -0.11142
  Beta virt. eigenvalues --   -0.07379  -0.07147  -0.04619  -0.03332  -0.02877
  Beta virt. eigenvalues --   -0.02627  -0.01264  -0.01020  -0.00660  -0.00036
  Beta virt. eigenvalues --    0.00153   0.00271   0.00497   0.00801   0.00906

 Mulliken charges and spin densities:
               1          2
     1  Na  -0.759533   0.220283
     2  Na   0.111014   0.213945
     3  Na   0.355155  -0.030655
     4  Na   0.421980   0.111015
     5  Na  -0.436866   0.240792
     6  Na  -0.439815   0.031621
     7  Na   0.748065   0.213001
 Sum of Mulliken charges =  -0.00000   1.00000

 Dipole moment (field-independent basis, Debye):
    X=              0.6758    Y=             -0.3759    Z=              0.1646  Tot=              0.7906
 Quadrupole moment (field-independent basis, Debye-Ang):
   XX=            -44.2337   YY=            -77.0908   ZZ=            -71.5290
   XY=              0.5623   XZ=              1.0656   YZ=             -0.1170

 Normal termination of Gaussian 16 at Mon Nov 13 18:24:24 2023.
