 Gaussian 16, Revision B.01,
 Gaussian 16:  ES64L-G16RevB.01 20-Dec-2017

 -------------------------
 #P B3LYP/6-311+g(d) force
 -------------------------

 ------------------------------
 Gaussian input prepared by ASE
 ------------------------------
 Symbolic Z-matrix:
 Charge =  0 Multiplicity = 2

                         Standard orientation:
 ---------------------------------------------------------------------
 Center     Atomic      Atomic             Coordinates (Angstroms)
 Number     Number       Type             X           Y           Z
 ---------------------------------------------------------------------
      1         11           0        0.716529    3.258746   -0.132397
      2         11           0       -0.727331    0.645439   -0.463776
      3         11           0       -3.407911    0.893253    0.870410
      4         11           0       -2.737084   -1.564702   -0.702729
      5         11           0       -0.169670   -2.034066    0.769448
      6         11           0        1.897396   -0.734408   -0.964459
      7         11           0        4.428071   -0.464263    0.623503
 ---------------------------------------------------------------------

 SCF Done:  E(UB3LYP) =  -1136.10040687     A.U. after   21 cycles

 The electronic state is 2-A.
 Alpha  occ. eigenvalues --  -38.44514 -38.44314 -38.44308 -38.44271 -38.43591
 Alpha  occ. eigenvalues --  -38.43574 -38.42841  -2.20502  -2.20252  -2.20226
 Alpha  occ. eigenvalues --   -2.20152  -2.19572  -2.19383  -2.19041  -1.14264
 Alpha  occ. eigenvalues --   -1.14208  -1.14163  -1.13988  -1.13903  -1.13885
 Alpha  occ. eigenvalues --   -1.13856  -1.13846  -1.13838  -1.13807  -1.13764
 Alpha  occ. eigenvalues --   -1.13759  -1.13317  -1.13224  -1.13170  -1.13112
 Alpha  occ. eigenvalues --   -1.13036  -1.13002  -1.12710  -1.12697  -1.12637
 Alpha  occ. eigenvalues --   -0.18829  -0.14391  -0.11965  -0.10803
 Alpha virt. eigenvalues --   -0.06218  -0.05483  -0.04254  -0.03677  -0.02727
 Alpha virt. eigenvalues --   -0.01880  -0.01527  -0.01244  -0.00708  -0.00297
 Alpha virt. eigenvalues --   -0.00036  -0.00029   0.00437   0.00623   0.00742

  Beta  occ. eigenvalues --  -38.44503 -38.44257 -38.44253 -38.44196 -38.43577
  Beta  occ. eigenvalues --  -38.43566 -38.42814  -2.20488  -2.20222  -2.20122
  Beta  occ. eigenvalues --   -2.19946  -2.19559  -2.19368  -2.18998  -1.14257
  Beta  occ. eigenvalues --   -1.14181  -1.14125  -1.13955  -1.13867  -1.13842
  Beta  occ. eigenvalues --   -1.13822  -1.13779  -1.13733  -1.13713  -1.13623
  Beta  occ. eigenvalues --   -1.13618  -1.13253  -1.13209  -1.13155  -1.13096
  Beta  occ. eigenvalues --   -1.13026  -1.12994  -1.12684  -1.12646  -1.12603
  Beta  occ. eigenvalues --   -0.18338  -0.13461  -0.11771
  Beta virt. eigenvalues --   -0.07159  -0.06105  -0.05315  -0.03792  -0.03312
  Beta virt. eigenvalues --   -0.02377  -0.01657  -0.01170  -0.01004  -0.00294
  Beta virt. eigenvalues --   -0.00113   0.00070   0.00241   0.00530   0.00675

 Mulliken charges and spin densities:
               1          2
     1  Na   0.441756   0.083416
     2  Na  -1.991605  -0.082610
     3  Na   0.555564   0.328326
     4  Na   0.476555   0.134211
     5  Na   0.301431   0.135517
     6  Na   0.229146  -0.066193
     7  Na  -0.012848   0.467332
 Sum of Mulliken charges =  -0.00000   1.00000

 Dipole moment (field-independent basis, Debye):
    X=             -0.8349    Y=             -0.3920    Z=              0.5697  Tot=              1.0841
 Quadrupole moment (field-independent basis, Debye-Ang):
   XX=            -67.3562   YY=            -68.2598   ZZ=            -64.5367
   XY=              5.3837   XZ=              1.5513   YZ=              1.9302

 Normal termination of Gaussian 16 at Mon Nov 13 16:58:52 2023.
