 Gaussian 16, Revision B.01,
 Gaussian 16:  ES64L-G16RevB.01 20-Dec-2017

 -------------------------
 #P B3LYP/6-311+g(d) force
 -------------------------

 ------------------------------
 Gaussian input prepared by ASE
 ------------------------------
 Symbolic Z-matrix:
 Charge =  0 Multiplicity = 2

                         Standard orientation:
 ---------------------------------------------------------------------
 Center     Atomic      Atomic             Coordinates (Angstroms)
 Number     Number       Type             X           Y           Z
 ---------------------------------------------------------------------
      1         11           0        0.266771   -1.809292    1.242201
      2         11           0       -1.610730   -2.600032   -0.953413
      3         11           0        4.523294    0.355231    0.478051
      4         11           0        1.901202   -0.334390   -0.788762
      5         11           0       -3.671120    0.841962    0.854152
      6         11           0       -1.015507    0.303094   -0.447274
      7         11           0       -0.393910    3.243427   -0.384954
 ---------------------------------------------------------------------

 SCF Done:  E(UB3LYP) =  -1136.10085206     A.U. after   23 cycles

 The electronic state is 2-A.
 Alpha  occ. eigenvalues --  -38.45527 -38.44773 -38.43960 -38.43850 -38.43737
 Alpha  occ. eigenvalues --  -38.43262 -38.42776  -2.21483  -2.20664  -2.19774
 Alpha  occ. eigenvalues --   -2.19691  -2.19573  -2.19257  -2.18985  -1.15225
 Alpha  occ. eigenvalues --   -1.15129  -1.15105  -1.14374  -1.14323  -1.14266
 Alpha  occ. eigenvalues --   -1.13484  -1.13427  -1.13399  -1.13380  -1.13332
 Alpha  occ. eigenvalues --   -1.13300  -1.13278  -1.13195  -1.13192  -1.13018
 Alpha  occ. eigenvalues --   -1.12912  -1.12847  -1.12669  -1.12626  -1.12594
 Alpha  occ. eigenvalues --   -0.18658  -0.13476  -0.12581  -0.10235
 Alpha virt. eigenvalues --   -0.06710  -0.05506  -0.04319  -0.03238  -0.02390
 Alpha virt. eigenvalues --   -0.02323  -0.01590  -0.01386  -0.00865  -0.00414
 Alpha virt. eigenvalues --   -0.00031   0.00053   0.00336   0.00591   0.00776

  Beta  occ. eigenvalues --  -38.45528 -38.44778 -38.43936 -38.43771 -38.43662
  Beta  occ. eigenvalues --  -38.43248 -38.42745  -2.21487  -2.20678  -2.19730
  Beta  occ. eigenvalues --   -2.19543  -2.19433  -2.19240  -2.18940  -1.15218
  Beta  occ. eigenvalues --   -1.15130  -1.15117  -1.14385  -1.14334  -1.14256
  Beta  occ. eigenvalues --   -1.13451  -1.13397  -1.13350  -1.13301  -1.13230
  Beta  occ. eigenvalues --   -1.13212  -1.13174  -1.13100  -1.13096  -1.12982
  Beta  occ. eigenvalues --   -1.12873  -1.12831  -1.12651  -1.12570  -1.12524
  Beta  occ. eigenvalues --   -0.18192  -0.12694  -0.12309
  Beta virt. eigenvalues --   -0.06795  -0.06585  -0.05212  -0.03994  -0.02768
  Beta virt. eigenvalues --   -0.02277  -0.02028  -0.01374  -0.00968  -0.00664
  Beta virt. eigenvalues --   -0.00099   0.00087   0.00221   0.00532   0.00666

 Mulliken charges and spin densities:
               1          2
     1  Na  -0.053722   0.337296
     2  Na   1.236281  -0.191567
     3  Na  -0.122230   0.472759
     4  Na   0.527352  -0.300855
     5  Na   0.707575   0.374895
     6  Na  -2.897176  -0.059178
     7  Na   0.601920   0.366649
 Sum of Mulliken charges =  -0.00000   1.00000

 Dipole moment (field-independent basis, Debye):
    X=             -0.5976    Y=             -0.7127    Z=              0.1333  Tot=              0.9397
 Quadrupole moment (field-independent basis, Debye-Ang):
   XX=            -72.7724   YY=            -61.5076   ZZ=            -65.0944
   XY=              4.4595   XZ=              2.7302   YZ=              1.9457

 Normal termination of Gaussian 16 at Mon Nov 13 18:32:52 2023.
