 Gaussian 16, Revision B.01,
 Gaussian 16:  ES64L-G16RevB.01 20-Dec-2017

 -------------------------
 #P B3LYP/6-311+g(d) force
 -------------------------

 ------------------------------
 Gaussian input prepared by ASE
 ------------------------------
 Symbolic Z-matrix:
 Charge =  0 Multiplicity = 2

                         Standard orientation:
 ---------------------------------------------------------------------
 Center     Atomic      Atomic             Coordinates (Angstroms)
 Number     Number       Type             X           Y           Z
 ---------------------------------------------------------------------
      1         11           0       -0.356983    0.503880    1.351806
      2         11           0       -0.586940   -1.727202   -0.648436
      3         11           0       -3.013992   -0.790948    0.842384
      4         11           0       -1.765818    0.965385   -1.245547
      5         11           0        0.734102    2.496519   -0.601403
      6         11           0        2.593730    0.619649    0.815673
      7         11           0        2.395901   -2.067283   -0.514477
 ---------------------------------------------------------------------

 SCF Done:  E(UB3LYP) =  -1136.10458500     A.U. after   21 cycles

 The electronic state is 2-A.
 Alpha  occ. eigenvalues --  -38.44470 -38.44181 -38.43822 -38.43704 -38.43636
 Alpha  occ. eigenvalues --  -38.43483 -38.43243  -2.20465  -2.20161  -2.19911
 Alpha  occ. eigenvalues --   -2.19821  -2.19594  -2.19546  -2.19226  -1.14221
 Alpha  occ. eigenvalues --   -1.14117  -1.14106  -1.13908  -1.13828  -1.13822
 Alpha  occ. eigenvalues --   -1.13735  -1.13579  -1.13543  -1.13502  -1.13449
 Alpha  occ. eigenvalues --   -1.13393  -1.13362  -1.13244  -1.13217  -1.13192
 Alpha  occ. eigenvalues --   -1.13167  -1.13084  -1.12893  -1.12876  -1.12832
 Alpha  occ. eigenvalues --   -0.20048  -0.14373  -0.12581  -0.11057
 Alpha virt. eigenvalues --   -0.05990  -0.05107  -0.04478  -0.03573  -0.02792
 Alpha virt. eigenvalues --   -0.02065  -0.01759  -0.00726  -0.00193   0.00254
 Alpha virt. eigenvalues --    0.00309   0.00355   0.00708   0.00836   0.01009

  Beta  occ. eigenvalues --  -38.44439 -38.44162 -38.43768 -38.43698 -38.43579
  Beta  occ. eigenvalues --  -38.43455 -38.43229  -2.20410  -2.20129  -2.19816
  Beta  occ. eigenvalues --   -2.19721  -2.19585  -2.19500  -2.19204  -1.14186
  Beta  occ. eigenvalues --   -1.14075  -1.14047  -1.13878  -1.13813  -1.13787
  Beta  occ. eigenvalues --   -1.13673  -1.13516  -1.13455  -1.13440  -1.13369
  Beta  occ. eigenvalues --   -1.13343  -1.13320  -1.13237  -1.13201  -1.13161
  Beta  occ. eigenvalues --   -1.13093  -1.13063  -1.12878  -1.12852  -1.12792
  Beta  occ. eigenvalues --   -0.19352  -0.14136  -0.12263
  Beta virt. eigenvalues --   -0.07099  -0.05884  -0.04992  -0.04137  -0.03030
  Beta virt. eigenvalues --   -0.02153  -0.01761  -0.01055  -0.00628   0.00069
  Beta virt. eigenvalues --    0.00280   0.00321   0.00410   0.00782   0.00879

 Mulliken charges and spin densities:
               1          2
     1  Na  -1.917170  -0.003062
     2  Na  -0.216938   0.540875
     3  Na   1.847411   0.113650
     4  Na  -0.131519   0.126657
     5  Na  -0.124643   0.151447
     6  Na   1.233102   0.236802
     7  Na  -0.690243  -0.166369
 Sum of Mulliken charges =  -0.00000   1.00000

 Dipole moment (field-independent basis, Debye):
    X=             -0.2797    Y=             -0.0078    Z=             -0.0850  Tot=              0.2924
 Quadrupole moment (field-independent basis, Debye-Ang):
   XX=            -53.0275   YY=            -69.8869   ZZ=            -72.3929
   XY=              1.8159   XZ=             -0.6727   YZ=             -1.0932

 Normal termination of Gaussian 16 at Mon Nov 13 16:49:32 2023.
