 Gaussian 16, Revision B.01,
 Gaussian 16:  ES64L-G16RevB.01 20-Dec-2017

 -------------------------
 #P B3LYP/6-311+g(d) force
 -------------------------

 ------------------------------
 Gaussian input prepared by ASE
 ------------------------------
 Symbolic Z-matrix:
 Charge =  0 Multiplicity = 2

                         Standard orientation:
 ---------------------------------------------------------------------
 Center     Atomic      Atomic             Coordinates (Angstroms)
 Number     Number       Type             X           Y           Z
 ---------------------------------------------------------------------
      1         11           0        1.087782   -1.511997   -0.266849
      2         11           0       -1.740867    1.517043   -1.297798
      3         11           0       -1.708224   -1.487534   -1.353848
      4         11           0       -1.252834   -1.500188    1.611607
      5         11           0       -1.149484    1.503223    1.644477
      6         11           0        1.098642    1.492037   -0.337030
      7         11           0        3.664985   -0.012584   -0.000558
 ---------------------------------------------------------------------

 SCF Done:  E(UB3LYP) =  -1136.10819340     A.U. after   17 cycles

 The electronic state is 2-A.
 Alpha  occ. eigenvalues --  -38.44247 -38.43914 -38.43910 -38.43838 -38.43820
 Alpha  occ. eigenvalues --  -38.43231 -38.43216  -2.20136  -2.19927  -2.19914
 Alpha  occ. eigenvalues --   -2.19844  -2.19823  -2.19305  -2.19284  -1.13862
 Alpha  occ. eigenvalues --   -1.13810  -1.13759  -1.13725  -1.13686  -1.13660
 Alpha  occ. eigenvalues --   -1.13618  -1.13607  -1.13575  -1.13533  -1.13499
 Alpha  occ. eigenvalues --   -1.13443  -1.13393  -1.13366  -1.13347  -1.13103
 Alpha  occ. eigenvalues --   -1.12968  -1.12935  -1.12922  -1.12906  -1.12818
 Alpha  occ. eigenvalues --   -0.20008  -0.13703  -0.12311  -0.12263
 Alpha virt. eigenvalues --   -0.05950  -0.04196  -0.03838  -0.03615  -0.03398
 Alpha virt. eigenvalues --   -0.03223  -0.01552  -0.00529  -0.00389   0.00279
 Alpha virt. eigenvalues --    0.00554   0.00559   0.00789   0.01038   0.01139

  Beta  occ. eigenvalues --  -38.44254 -38.43854 -38.43851 -38.43790 -38.43774
  Beta  occ. eigenvalues --  -38.43221 -38.43206  -2.20148  -2.19819  -2.19808
  Beta  occ. eigenvalues --   -2.19760  -2.19741  -2.19289  -2.19268  -1.13869
  Beta  occ. eigenvalues --   -1.13818  -1.13764  -1.13662  -1.13604  -1.13591
  Beta  occ. eigenvalues --   -1.13545  -1.13529  -1.13503  -1.13472  -1.13442
  Beta  occ. eigenvalues --   -1.13357  -1.13322  -1.13312  -1.13264  -1.13094
  Beta  occ. eigenvalues --   -1.12923  -1.12916  -1.12904  -1.12887  -1.12811
  Beta  occ. eigenvalues --   -0.19219  -0.13526  -0.12229
  Beta virt. eigenvalues --   -0.07884  -0.05691  -0.04212  -0.03720  -0.02945
  Beta virt. eigenvalues --   -0.02807  -0.02139  -0.01361  -0.00536  -0.00085
  Beta virt. eigenvalues --    0.00349   0.00545   0.00664   0.00942   0.01074

 Mulliken charges and spin densities:
               1          2
     1  Na  -0.262933   0.283655
     2  Na   0.052078   0.155927
     3  Na   0.030560   0.184596
     4  Na  -0.048276   0.125291
     5  Na  -0.038570   0.153358
     6  Na  -0.337579   0.291135
     7  Na   0.604721  -0.193962
 Sum of Mulliken charges =  -0.00000   1.00000

 Dipole moment (field-independent basis, Debye):
    X=              0.2033    Y=              0.0048    Z=              0.1720  Tot=              0.2664
 Quadrupole moment (field-independent basis, Debye-Ang):
   XX=            -56.8007   YY=            -73.1059   ZZ=            -66.1306
   XY=              0.0138   XZ=              1.4789   YZ=             -0.0290

 Normal termination of Gaussian 16 at Mon Nov 13 16:52:18 2023.
