 Gaussian 16, Revision B.01,
 Gaussian 16:  ES64L-G16RevB.01 20-Dec-2017

 -------------------------
 #P B3LYP/6-311+g(d) force
 -------------------------

 ------------------------------
 Gaussian input prepared by ASE
 ------------------------------
 Symbolic Z-matrix:
 Charge =  0 Multiplicity = 2

                         Standard orientation:
 ---------------------------------------------------------------------
 Center     Atomic      Atomic             Coordinates (Angstroms)
 Number     Number       Type             X           Y           Z
 ---------------------------------------------------------------------
      1         11           0       -0.267222   -0.391638   -1.250475
      2         11           0       -0.086492    2.508460   -0.431467
      3         11           0       -3.161519   -0.805318   -0.702803
      4         11           0       -1.467344    0.592981    1.315962
      5         11           0        0.692813   -2.185864    0.984524
      6         11           0        1.545676    0.685365    1.314854
      7         11           0        2.744087   -0.403986   -1.230594
 ---------------------------------------------------------------------

 SCF Done:  E(UB3LYP) =  -1136.10920248     A.U. after   20 cycles

 The electronic state is 2-A.
 Alpha  occ. eigenvalues --  -38.44283 -38.44124 -38.43387 -38.43322 -38.43271
 Alpha  occ. eigenvalues --  -38.43114 -38.42738  -2.20217  -2.20020  -2.19458
 Alpha  occ. eigenvalues --   -2.19413  -2.19359  -2.19341  -2.18737  -1.13944
 Alpha  occ. eigenvalues --   -1.13906  -1.13792  -1.13763  -1.13714  -1.13611
 Alpha  occ. eigenvalues --   -1.13361  -1.13205  -1.13173  -1.13105  -1.13081
 Alpha  occ. eigenvalues --   -1.13053  -1.12993  -1.12980  -1.12956  -1.12945
 Alpha  occ. eigenvalues --   -1.12905  -1.12895  -1.12422  -1.12366  -1.12327
 Alpha  occ. eigenvalues --   -0.20295  -0.13644  -0.12035  -0.11895
 Alpha virt. eigenvalues --   -0.05690  -0.04253  -0.03943  -0.03359  -0.02849
 Alpha virt. eigenvalues --   -0.02621  -0.01590  -0.00551  -0.00513   0.00331
 Alpha virt. eigenvalues --    0.00541   0.00631   0.00754   0.00978   0.01014

  Beta  occ. eigenvalues --  -38.44246 -38.44113 -38.43351 -38.43281 -38.43224
  Beta  occ. eigenvalues --  -38.43062 -38.42729  -2.20151  -2.20003  -2.19389
  Beta  occ. eigenvalues --   -2.19336  -2.19287  -2.19261  -2.18723  -1.13895
  Beta  occ. eigenvalues --   -1.13854  -1.13748  -1.13744  -1.13693  -1.13598
  Beta  occ. eigenvalues --   -1.13307  -1.13154  -1.13101  -1.13040  -1.13021
  Beta  occ. eigenvalues --   -1.13001  -1.12922  -1.12917  -1.12889  -1.12872
  Beta  occ. eigenvalues --   -1.12857  -1.12841  -1.12413  -1.12329  -1.12317
  Beta  occ. eigenvalues --   -0.19454  -0.13416  -0.11736
  Beta virt. eigenvalues --   -0.07706  -0.05573  -0.03985  -0.03723  -0.03051
  Beta virt. eigenvalues --   -0.02148  -0.01678  -0.01377  -0.00523  -0.00185
  Beta virt. eigenvalues --    0.00360   0.00588   0.00694   0.00815   0.00994

 Mulliken charges and spin densities:
               1          2
     1  Na  -0.649188   0.184015
     2  Na  -0.167610   0.267890
     3  Na   0.338470   0.065795
     4  Na   0.147279   0.039940
     5  Na  -0.350058   0.227652
     6  Na   0.340536   0.280267
     7  Na   0.340571  -0.065559
 Sum of Mulliken charges =  -0.00000   1.00000

 Dipole moment (field-independent basis, Debye):
    X=              0.1101    Y=             -0.2375    Z=             -0.1973  Tot=              0.3278
 Quadrupole moment (field-independent basis, Debye-Ang):
   XX=            -55.6016   YY=            -70.6847   ZZ=            -66.7171
   XY=              0.4197   XZ=             -0.8718   YZ=             -1.9207

 Normal termination of Gaussian 16 at Mon Nov 13 18:53:24 2023.
