 Gaussian 16, Revision B.01,
 Gaussian 16:  ES64L-G16RevB.01 20-Dec-2017

 -------------------------
 #P B3LYP/6-311+g(d) force
 -------------------------

 ------------------------------
 Gaussian input prepared by ASE
 ------------------------------
 Symbolic Z-matrix:
 Charge =  0 Multiplicity = 2

                         Standard orientation:
 ---------------------------------------------------------------------
 Center     Atomic      Atomic             Coordinates (Angstroms)
 Number     Number       Type             X           Y           Z
 ---------------------------------------------------------------------
      1         11           0        0.506851    0.715558   -1.776215
      2         11           0       -0.856416   -1.768195   -0.813460
      3         11           0        2.138648   -1.586291   -0.749168
      4         11           0        1.872521   -0.598603    2.077518
      5         11           0       -3.327938   -0.607060    0.418969
      6         11           0       -0.650501    0.622263    0.989271
      7         11           0        0.316835    3.222328   -0.146915
 ---------------------------------------------------------------------

 SCF Done:  E(UB3LYP) =  -1136.10573752     A.U. after   21 cycles

 The electronic state is 2-A.
 Alpha  occ. eigenvalues --  -38.44904 -38.44063 -38.43626 -38.43616 -38.43416
 Alpha  occ. eigenvalues --  -38.43148 -38.43131  -2.20818  -2.20153  -2.19611
 Alpha  occ. eigenvalues --   -2.19524  -2.19492  -2.19338  -2.19027  -1.14520
 Alpha  occ. eigenvalues --   -1.14465  -1.14400  -1.13923  -1.13826  -1.13777
 Alpha  occ. eigenvalues --   -1.13382  -1.13337  -1.13258  -1.13241  -1.13223
 Alpha  occ. eigenvalues --   -1.13199  -1.13147  -1.13115  -1.13028  -1.12996
 Alpha  occ. eigenvalues --   -1.12972  -1.12931  -1.12695  -1.12656  -1.12634
 Alpha  occ. eigenvalues --   -0.19874  -0.13053  -0.12612  -0.12313
 Alpha virt. eigenvalues --   -0.05374  -0.04422  -0.04163  -0.03556  -0.03330
 Alpha virt. eigenvalues --   -0.02975  -0.01185  -0.00859  -0.00399   0.00302
 Alpha virt. eigenvalues --    0.00560   0.00751   0.00857   0.00956   0.00984

  Beta  occ. eigenvalues --  -38.44815 -38.43990 -38.43625 -38.43600 -38.43388
  Beta  occ. eigenvalues --  -38.43131 -38.43106  -2.20654  -2.20023  -2.19589
  Beta  occ. eigenvalues --   -2.19521  -2.19448  -2.19268  -2.19029  -1.14397
  Beta  occ. eigenvalues --   -1.14361  -1.14288  -1.13838  -1.13721  -1.13690
  Beta  occ. eigenvalues --   -1.13359  -1.13316  -1.13232  -1.13212  -1.13195
  Beta  occ. eigenvalues --   -1.13177  -1.13136  -1.13065  -1.12974  -1.12955
  Beta  occ. eigenvalues --   -1.12934  -1.12880  -1.12685  -1.12648  -1.12634
  Beta  occ. eigenvalues --   -0.19042  -0.12812  -0.12310
  Beta virt. eigenvalues --   -0.08181  -0.05211  -0.04321  -0.03604  -0.03111
  Beta virt. eigenvalues --   -0.02525  -0.02283  -0.01132  -0.00797  -0.00122
  Beta virt. eigenvalues --    0.00337   0.00561   0.00887   0.00930   0.01030

 Mulliken charges and spin densities:
               1          2
     1  Na  -0.083693   0.382725
     2  Na  -0.219944   0.238084
     3  Na   0.221792  -0.077128
     4  Na   0.179658   0.138626
     5  Na   0.363866   0.012393
     6  Na  -0.797552   0.209027
     7  Na   0.335873   0.096273
 Sum of Mulliken charges =  -0.00000   1.00000

 Dipole moment (field-independent basis, Debye):
    X=              0.3035    Y=             -0.0622    Z=              0.2772  Tot=              0.4157
 Quadrupole moment (field-independent basis, Debye-Ang):
   XX=            -61.7619   YY=            -67.5851   ZZ=            -65.4950
   XY=             -0.9805   XZ=              0.2983   YZ=              1.1376

 Normal termination of Gaussian 16 at Mon Nov 13 19:00:27 2023.
