 Gaussian 16, Revision B.01,
 Gaussian 16:  ES64L-G16RevB.01 20-Dec-2017

 -------------------------
 #P B3LYP/6-311+g(d) force
 -------------------------

 ------------------------------
 Gaussian input prepared by ASE
 ------------------------------
 Symbolic Z-matrix:
 Charge =  0 Multiplicity = 2

                         Standard orientation:
 ---------------------------------------------------------------------
 Center     Atomic      Atomic             Coordinates (Angstroms)
 Number     Number       Type             X           Y           Z
 ---------------------------------------------------------------------
      1         11           0        0.127162   -2.002473    2.308871
      2         11           0        2.196007   -1.869754   -1.950080
      3         11           0       -4.322711    0.735538    0.333555
      4         11           0       -2.194009   -0.701595   -1.204207
      5         11           0        0.545389   -0.212411   -0.066873
      6         11           0        2.754790    1.341938    1.239944
      7         11           0        0.893372    2.708758   -0.661210
 ---------------------------------------------------------------------

 SCF Done:  E(UB3LYP) =  -1136.09981277     A.U. after   24 cycles

 The electronic state is 2-A.
 Alpha  occ. eigenvalues --  -38.44553 -38.44528 -38.44387 -38.44367 -38.43921
 Alpha  occ. eigenvalues --  -38.43642 -38.42851  -2.20352  -2.20342  -2.20264
 Alpha  occ. eigenvalues --   -2.20219  -2.19800  -2.19531  -2.19037  -1.14057
 Alpha  occ. eigenvalues --   -1.14045  -1.13996  -1.13990  -1.13984  -1.13975
 Alpha  occ. eigenvalues --   -1.13954  -1.13923  -1.13901  -1.13893  -1.13827
 Alpha  occ. eigenvalues --   -1.13820  -1.13537  -1.13433  -1.13400  -1.13267
 Alpha  occ. eigenvalues --   -1.13159  -1.13144  -1.12754  -1.12711  -1.12626
 Alpha  occ. eigenvalues --   -0.17997  -0.13162  -0.11722  -0.11451
 Alpha virt. eigenvalues --   -0.06673  -0.04734  -0.04126  -0.03158  -0.03098
 Alpha virt. eigenvalues --   -0.02419  -0.01937  -0.01411  -0.00673  -0.00181
 Alpha virt. eigenvalues --   -0.00004   0.00214   0.00374   0.00716   0.00825

  Beta  occ. eigenvalues --  -38.44563 -38.44453 -38.44353 -38.44298 -38.43913
  Beta  occ. eigenvalues --  -38.43640 -38.42827  -2.20360  -2.20238  -2.20213
  Beta  occ. eigenvalues --   -2.20053  -2.19786  -2.19529  -2.19007  -1.14069
  Beta  occ. eigenvalues --   -1.14002  -1.13996  -1.13982  -1.13950  -1.13888
  Beta  occ. eigenvalues --   -1.13877  -1.13862  -1.13861  -1.13809  -1.13713
  Beta  occ. eigenvalues --   -1.13706  -1.13530  -1.13413  -1.13395  -1.13265
  Beta  occ. eigenvalues --   -1.13149  -1.13143  -1.12709  -1.12629  -1.12613
  Beta  occ. eigenvalues --   -0.17277  -0.13140  -0.11341
  Beta virt. eigenvalues --   -0.07508  -0.06435  -0.04388  -0.03932  -0.02789
  Beta virt. eigenvalues --   -0.02645  -0.01997  -0.01531  -0.01250  -0.00397
  Beta virt. eigenvalues --   -0.00095   0.00089   0.00355   0.00381   0.00765

 Mulliken charges and spin densities:
               1          2
     1  Na   0.396400   0.620215
     2  Na   0.314412   0.221418
     3  Na   0.481862  -0.047694
     4  Na  -0.321540   0.042441
     5  Na  -1.927702   0.408144
     6  Na   0.833910   0.009476
     7  Na   0.222658  -0.254000
 Sum of Mulliken charges =  -0.00000   1.00000

 Dipole moment (field-independent basis, Debye):
    X=              0.2141    Y=              0.1151    Z=              0.5450  Tot=              0.5967
 Quadrupole moment (field-independent basis, Debye-Ang):
   XX=            -56.2498   YY=            -70.6414   ZZ=            -65.5364
   XY=             -3.1243   XZ=             -2.3162   YZ=             -0.3654

 Normal termination of Gaussian 16 at Mon Nov 13 17:25:02 2023.
