 Gaussian 16, Revision B.01,
 Gaussian 16:  ES64L-G16RevB.01 20-Dec-2017

 -------------------------
 #P B3LYP/6-311+g(d) force
 -------------------------

 ------------------------------
 Gaussian input prepared by ASE
 ------------------------------
 Symbolic Z-matrix:
 Charge =  0 Multiplicity = 2

                         Standard orientation:
 ---------------------------------------------------------------------
 Center     Atomic      Atomic             Coordinates (Angstroms)
 Number     Number       Type             X           Y           Z
 ---------------------------------------------------------------------
      1         11           0       -1.410015   -0.263102    1.342935
      2         11           0        1.281575   -1.406144    0.644486
      3         11           0        3.951336   -1.126071   -0.688039
      4         11           0        2.305841    1.309596   -0.110060
      5         11           0       -0.430871    2.423353    0.431131
      6         11           0       -2.396111    0.893495   -1.241683
      7         11           0       -3.301754   -1.831127   -0.378770
 ---------------------------------------------------------------------

 SCF Done:  E(UB3LYP) =  -1136.10480354     A.U. after   21 cycles

 The electronic state is 2-A.
 Alpha  occ. eigenvalues --  -38.44393 -38.44336 -38.44037 -38.44019 -38.43895
 Alpha  occ. eigenvalues --  -38.43714 -38.42744  -2.20372  -2.20333  -2.20013
 Alpha  occ. eigenvalues --   -2.19951  -2.19829  -2.19793  -2.18733  -1.14129
 Alpha  occ. eigenvalues --   -1.14077  -1.14074  -1.14017  -1.14009  -1.13956
 Alpha  occ. eigenvalues --   -1.13818  -1.13670  -1.13636  -1.13589  -1.13582
 Alpha  occ. eigenvalues --   -1.13565  -1.13555  -1.13482  -1.13443  -1.13434
 Alpha  occ. eigenvalues --   -1.13406  -1.13336  -1.12425  -1.12375  -1.12364
 Alpha  occ. eigenvalues --   -0.19065  -0.15110  -0.12082  -0.10985
 Alpha virt. eigenvalues --   -0.05991  -0.05681  -0.04143  -0.03754  -0.02653
 Alpha virt. eigenvalues --   -0.02234  -0.01771  -0.01074  -0.00647  -0.00125
 Alpha virt. eigenvalues --    0.00167   0.00295   0.00588   0.00632   0.00751

  Beta  occ. eigenvalues --  -38.44382 -38.44282 -38.44009 -38.43971 -38.43883
  Beta  occ. eigenvalues --  -38.43652 -38.42737  -2.20356  -2.20233  -2.19933
  Beta  occ. eigenvalues --   -2.19897  -2.19778  -2.19721  -2.18725  -1.14120
  Beta  occ. eigenvalues --   -1.14039  -1.14014  -1.14003  -1.13931  -1.13886
  Beta  occ. eigenvalues --   -1.13735  -1.13625  -1.13587  -1.13549  -1.13545
  Beta  occ. eigenvalues --   -1.13527  -1.13496  -1.13426  -1.13406  -1.13391
  Beta  occ. eigenvalues --   -1.13336  -1.13273  -1.12424  -1.12373  -1.12326
  Beta  occ. eigenvalues --   -0.18358  -0.14714  -0.11859
  Beta virt. eigenvalues --   -0.07100  -0.05868  -0.05405  -0.03717  -0.03510
  Beta virt. eigenvalues --   -0.02075  -0.01992  -0.01170  -0.00958  -0.00521
  Beta virt. eigenvalues --    0.00150   0.00300   0.00386   0.00716   0.00760

 Mulliken charges and spin densities:
               1          2
     1  Na  -1.519578  -0.158204
     2  Na  -0.368753   0.224769
     3  Na   1.352197   0.148251
     4  Na  -0.556939  -0.056673
     5  Na   0.373298   0.428188
     6  Na  -0.246828   0.376536
     7  Na   0.966602   0.037132
 Sum of Mulliken charges =  -0.00000   1.00000

 Dipole moment (field-independent basis, Debye):
    X=              0.4251    Y=             -0.4060    Z=             -0.3601  Tot=              0.6893
 Quadrupole moment (field-independent basis, Debye-Ang):
   XX=            -60.2123   YY=            -68.3536   ZZ=            -69.5333
   XY=              0.7617   XZ=             -1.6696   YZ=              1.7691

 Normal termination of Gaussian 16 at Mon Nov 13 15:43:16 2023.
