 Gaussian 16, Revision B.01,
 Gaussian 16:  ES64L-G16RevB.01 20-Dec-2017

 -------------------------
 #P B3LYP/6-311+g(d) force
 -------------------------

 ------------------------------
 Gaussian input prepared by ASE
 ------------------------------
 Symbolic Z-matrix:
 Charge =  0 Multiplicity = 2

                         Standard orientation:
 ---------------------------------------------------------------------
 Center     Atomic      Atomic             Coordinates (Angstroms)
 Number     Number       Type             X           Y           Z
 ---------------------------------------------------------------------
      1         11           0       -0.191190   -0.083434   -1.544751
      2         11           0        0.074495   -2.085878    0.300463
      3         11           0       -2.592100   -0.901511   -0.123469
      4         11           0       -1.526957    1.828955    0.176789
      5         11           0        0.360769    0.244106    1.722102
      6         11           0        1.381606    1.781391   -0.301514
      7         11           0        2.493376   -0.783629   -0.229619
 ---------------------------------------------------------------------

 SCF Done:  E(UB3LYP) =  -1136.07597473     A.U. after   20 cycles

 The electronic state is 2-A.
 Alpha  occ. eigenvalues --  -38.44143 -38.43963 -38.43960 -38.43917 -38.43695
 Alpha  occ. eigenvalues --  -38.43499 -38.43386  -2.20413  -2.20330  -2.20083
 Alpha  occ. eigenvalues --   -2.19948  -2.19892  -2.19693  -2.19504  -1.14367
 Alpha  occ. eigenvalues --   -1.14238  -1.14183  -1.14095  -1.14083  -1.14005
 Alpha  occ. eigenvalues --   -1.13894  -1.13798  -1.13662  -1.13644  -1.13622
 Alpha  occ. eigenvalues --   -1.13566  -1.13493  -1.13446  -1.13397  -1.13295
 Alpha  occ. eigenvalues --   -1.13269  -1.13194  -1.13165  -1.13126  -1.13063
 Alpha  occ. eigenvalues --   -0.21721  -0.14099  -0.12949  -0.12032
 Alpha virt. eigenvalues --   -0.05345  -0.04416  -0.04027  -0.03612  -0.03041
 Alpha virt. eigenvalues --   -0.02561  -0.01241  -0.00519  -0.00039   0.00341
 Alpha virt. eigenvalues --    0.00694   0.00775   0.01016   0.01133   0.01164

  Beta  occ. eigenvalues --  -38.44048 -38.43946 -38.43911 -38.43879 -38.43674
  Beta  occ. eigenvalues --  -38.43479 -38.43373  -2.20244  -2.20181  -2.20063
  Beta  occ. eigenvalues --   -2.19941  -2.19862  -2.19664  -2.19487  -1.14296
  Beta  occ. eigenvalues --   -1.14139  -1.14073  -1.14009  -1.13983  -1.13906
  Beta  occ. eigenvalues --   -1.13871  -1.13761  -1.13641  -1.13613  -1.13583
  Beta  occ. eigenvalues --   -1.13523  -1.13459  -1.13385  -1.13357  -1.13269
  Beta  occ. eigenvalues --   -1.13185  -1.13182  -1.13154  -1.13061  -1.13057
  Beta  occ. eigenvalues --   -0.20916  -0.13736  -0.12591
  Beta virt. eigenvalues --   -0.07797  -0.05356  -0.04399  -0.04002  -0.02677
  Beta virt. eigenvalues --   -0.02130  -0.01461  -0.01157  -0.00485   0.00106
  Beta virt. eigenvalues --    0.00374   0.00678   0.00758   0.01033   0.01140

 Mulliken charges and spin densities:
               1          2
     1  Na  -0.586629   0.356397
     2  Na   0.468190   0.139103
     3  Na  -0.032487  -0.031718
     4  Na   0.243938   0.053214
     5  Na  -0.398304   0.473241
     6  Na   0.237523   0.042535
     7  Na   0.067769  -0.032772
 Sum of Mulliken charges =  -0.00000   1.00000

 Dipole moment (field-independent basis, Debye):
    X=             -0.2072    Y=             -0.0405    Z=              0.1517  Tot=              0.2600
 Quadrupole moment (field-independent basis, Debye-Ang):
   XX=            -57.5912   YY=            -69.1248   ZZ=            -70.2264
   XY=             -0.1840   XZ=             -0.9634   YZ=             -0.2629

 Normal termination of Gaussian 16 at Mon Nov 13 20:05:59 2023.
