 Gaussian 16, Revision B.01,
 Gaussian 16:  ES64L-G16RevB.01 20-Dec-2017

 -------------------------
 #P B3LYP/6-311+g(d) force
 -------------------------

 ------------------------------
 Gaussian input prepared by ASE
 ------------------------------
 Symbolic Z-matrix:
 Charge =  0 Multiplicity = 2

                         Standard orientation:
 ---------------------------------------------------------------------
 Center     Atomic      Atomic             Coordinates (Angstroms)
 Number     Number       Type             X           Y           Z
 ---------------------------------------------------------------------
      1         11           0        0.729820    0.000187    1.793214
      2         11           0        0.464430    0.000609   -1.785411
      3         11           0        2.013276   -1.945737   -0.099631
      4         11           0       -0.952846   -1.850879    0.117536
      5         11           0       -3.306448   -0.002479   -0.044231
      6         11           0       -0.956688    1.849364    0.118172
      7         11           0        2.008456    1.948935   -0.099649
 ---------------------------------------------------------------------

 SCF Done:  E(UB3LYP) =  -1136.11025520     A.U. after   19 cycles

 The electronic state is 2-A.
 Alpha  occ. eigenvalues --  -38.44238 -38.43801 -38.43789 -38.43436 -38.43434
 Alpha  occ. eigenvalues --  -38.43050 -38.43050  -2.20130  -2.19931  -2.19915
 Alpha  occ. eigenvalues --   -2.19443  -2.19437  -2.19141  -2.19140  -1.13830
 Alpha  occ. eigenvalues --   -1.13828  -1.13750  -1.13697  -1.13625  -1.13602
 Alpha  occ. eigenvalues --   -1.13590  -1.13588  -1.13561  -1.13154  -1.13147
 Alpha  occ. eigenvalues --   -1.13082  -1.13077  -1.13050  -1.13048  -1.12826
 Alpha  occ. eigenvalues --   -1.12819  -1.12794  -1.12793  -1.12718  -1.12710
 Alpha  occ. eigenvalues --   -0.20548  -0.13604  -0.12781  -0.11611
 Alpha virt. eigenvalues --   -0.05663  -0.04574  -0.03976  -0.03295  -0.03121
 Alpha virt. eigenvalues --   -0.02753  -0.01445  -0.00834  -0.00074   0.00289
 Alpha virt. eigenvalues --    0.00477   0.00554   0.00965   0.01018   0.01093

  Beta  occ. eigenvalues --  -38.44243 -38.43711 -38.43699 -38.43425 -38.43423
  Beta  occ. eigenvalues --  -38.43035 -38.43034  -2.20141  -2.19766  -2.19752
  Beta  occ. eigenvalues --   -2.19429  -2.19422  -2.19120  -2.19119  -1.13841
  Beta  occ. eigenvalues --   -1.13835  -1.13745  -1.13608  -1.13517  -1.13493
  Beta  occ. eigenvalues --   -1.13477  -1.13469  -1.13448  -1.13142  -1.13131
  Beta  occ. eigenvalues --   -1.13044  -1.13039  -1.13022  -1.13016  -1.12815
  Beta  occ. eigenvalues --   -1.12810  -1.12723  -1.12722  -1.12712  -1.12704
  Beta  occ. eigenvalues --   -0.19749  -0.13376  -0.12424
  Beta virt. eigenvalues --   -0.07483  -0.05570  -0.04584  -0.03998  -0.02518
  Beta virt. eigenvalues --   -0.02181  -0.01664  -0.01381  -0.00796   0.00096
  Beta virt. eigenvalues --    0.00307   0.00436   0.00554   0.00993   0.01013

 Mulliken charges and spin densities:
               1          2
     1  Na  -0.302491   0.408108
     2  Na  -0.261902   0.545277
     3  Na   0.430185  -0.072303
     4  Na   0.012034   0.175880
     5  Na  -0.320603  -0.160627
     6  Na   0.012432   0.175912
     7  Na   0.430344  -0.072247
 Sum of Mulliken charges =  -0.00000   1.00000

 Dipole moment (field-independent basis, Debye):
    X=             -0.0514    Y=             -0.0009    Z=             -0.0374  Tot=              0.0636
 Quadrupole moment (field-independent basis, Debye-Ang):
   XX=            -55.2017   YY=            -69.1251   ZZ=            -70.7612
   XY=              0.0012   XZ=             -0.1192   YZ=              0.0013

 Normal termination of Gaussian 16 at Mon Nov 13 17:09:17 2023.
