 Gaussian 16, Revision B.01,
 Gaussian 16:  ES64L-G16RevB.01 20-Dec-2017

 -------------------------
 #P B3LYP/6-311+g(d) force
 -------------------------

 ------------------------------
 Gaussian input prepared by ASE
 ------------------------------
 Symbolic Z-matrix:
 Charge =  0 Multiplicity = 2

                         Standard orientation:
 ---------------------------------------------------------------------
 Center     Atomic      Atomic             Coordinates (Angstroms)
 Number     Number       Type             X           Y           Z
 ---------------------------------------------------------------------
      1         11           0        0.507683    0.286131   -0.975606
      2         11           0       -0.161135    2.274908    1.172115
      3         11           0        3.456920    0.781431   -1.221504
      4         11           0        2.457078   -1.589766    0.314590
      5         11           0        0.037642   -0.648375    1.826851
      6         11           0       -1.913455   -1.372426   -0.335956
      7         11           0       -4.384733    0.268097   -0.780489
 ---------------------------------------------------------------------

 SCF Done:  E(UB3LYP) =  -1136.09370527     A.U. after   27 cycles

 The electronic state is 2-A.
 Alpha  occ. eigenvalues --  -38.44553 -38.44479 -38.44379 -38.43892 -38.43843
 Alpha  occ. eigenvalues --  -38.43666 -38.43309  -2.20649  -2.20546  -2.20172
 Alpha  occ. eigenvalues --   -2.19813  -2.19799  -2.19591  -2.19405  -1.14458
 Alpha  occ. eigenvalues --   -1.14399  -1.14309  -1.14212  -1.14179  -1.14139
 Alpha  occ. eigenvalues --   -1.13896  -1.13821  -1.13817  -1.13518  -1.13489
 Alpha  occ. eigenvalues --   -1.13461  -1.13445  -1.13406  -1.13402  -1.13302
 Alpha  occ. eigenvalues --   -1.13253  -1.13189  -1.13075  -1.13036  -1.12961
 Alpha  occ. eigenvalues --   -0.19677  -0.13917  -0.12237  -0.11232
 Alpha virt. eigenvalues --   -0.07012  -0.04830  -0.03832  -0.03420  -0.02922
 Alpha virt. eigenvalues --   -0.02550  -0.02112  -0.01409  -0.00484  -0.00081
 Alpha virt. eigenvalues --    0.00057   0.00326   0.00689   0.00701   0.00849

  Beta  occ. eigenvalues --  -38.44511 -38.44441 -38.44387 -38.43870 -38.43823
  Beta  occ. eigenvalues --  -38.43606 -38.43264  -2.20590  -2.20474  -2.20186
  Beta  occ. eigenvalues --   -2.19779  -2.19758  -2.19480  -2.19331  -1.14391
  Beta  occ. eigenvalues --   -1.14335  -1.14259  -1.14142  -1.14121  -1.14088
  Beta  occ. eigenvalues --   -1.13902  -1.13830  -1.13824  -1.13499  -1.13460
  Beta  occ. eigenvalues --   -1.13431  -1.13416  -1.13370  -1.13364  -1.13238
  Beta  occ. eigenvalues --   -1.13162  -1.13112  -1.13024  -1.12991  -1.12866
  Beta  occ. eigenvalues --   -0.18758  -0.13811  -0.11089
  Beta virt. eigenvalues --   -0.08015  -0.06738  -0.04429  -0.03494  -0.02969
  Beta virt. eigenvalues --   -0.02596  -0.02113  -0.01688  -0.00971  -0.00447
  Beta virt. eigenvalues --   -0.00035   0.00120   0.00457   0.00730   0.00813

 Mulliken charges and spin densities:
               1          2
     1  Na  -1.599711   0.392481
     2  Na  -0.153936   0.351201
     3  Na   0.951637  -0.054851
     4  Na   0.161504   0.133051
     5  Na   0.323830   0.084320
     6  Na   0.395071   0.037528
     7  Na  -0.078395   0.056270
 Sum of Mulliken charges =  -0.00000   1.00000

 Dipole moment (field-independent basis, Debye):
    X=              0.3780    Y=              0.8627    Z=              0.8960  Tot=              1.3000
 Quadrupole moment (field-independent basis, Debye-Ang):
   XX=            -60.3324   YY=            -64.8226   ZZ=            -73.5622
   XY=             -3.7114   XZ=              0.0890   YZ=             -3.8483

 Normal termination of Gaussian 16 at Mon Nov 13 15:28:56 2023.
