 Gaussian 16, Revision B.01,
 Gaussian 16:  ES64L-G16RevB.01 20-Dec-2017

 -------------------------
 #P B3LYP/6-311+g(d) force
 -------------------------

 ------------------------------
 Gaussian input prepared by ASE
 ------------------------------
 Symbolic Z-matrix:
 Charge =  0 Multiplicity = 2

                         Standard orientation:
 ---------------------------------------------------------------------
 Center     Atomic      Atomic             Coordinates (Angstroms)
 Number     Number       Type             X           Y           Z
 ---------------------------------------------------------------------
      1         11           0        0.581145   -0.097784   -1.714102
      2         11           0       -1.069106    1.718587    0.027714
      3         11           0       -3.472166   -0.057275   -0.020205
      4         11           0       -1.106757   -1.885105    0.028713
      5         11           0        1.870266    2.017898   -0.016742
      6         11           0        0.629546   -0.097822    1.719468
      7         11           0        2.567071   -1.598501   -0.024845
 ---------------------------------------------------------------------

 SCF Done:  E(UB3LYP) =  -1136.10925596     A.U. after   20 cycles

 The electronic state is 2-A.
 Alpha  occ. eigenvalues --  -38.44948 -38.43916 -38.43586 -38.43569 -38.43249
 Alpha  occ. eigenvalues --  -38.43224 -38.42863  -2.20831  -2.19853  -2.19725
 Alpha  occ. eigenvalues --   -2.19708  -2.19266  -2.19244  -2.18963  -1.14525
 Alpha  occ. eigenvalues --   -1.14516  -1.14452  -1.13639  -1.13584  -1.13497
 Alpha  occ. eigenvalues --   -1.13462  -1.13408  -1.13402  -1.13372  -1.13286
 Alpha  occ. eigenvalues --   -1.13271  -1.12969  -1.12949  -1.12931  -1.12874
 Alpha  occ. eigenvalues --   -1.12855  -1.12847  -1.12648  -1.12606  -1.12541
 Alpha  occ. eigenvalues --   -0.20394  -0.14076  -0.12228  -0.11291
 Alpha virt. eigenvalues --   -0.06347  -0.04743  -0.03580  -0.03501  -0.02647
 Alpha virt. eigenvalues --   -0.02442  -0.01967  -0.00908  -0.00068   0.00157
 Alpha virt. eigenvalues --    0.00379   0.00396   0.00895   0.00932   0.00972

  Beta  occ. eigenvalues --  -38.44954 -38.43905 -38.43500 -38.43482 -38.43235
  Beta  occ. eigenvalues --  -38.43212 -38.42847  -2.20844  -2.19838  -2.19568
  Beta  occ. eigenvalues --   -2.19549  -2.19246  -2.19228  -2.18941  -1.14537
  Beta  occ. eigenvalues --   -1.14526  -1.14448  -1.13614  -1.13524  -1.13449
  Beta  occ. eigenvalues --   -1.13406  -1.13316  -1.13294  -1.13262  -1.13190
  Beta  occ. eigenvalues --   -1.13172  -1.12955  -1.12930  -1.12866  -1.12848
  Beta  occ. eigenvalues --   -1.12841  -1.12810  -1.12638  -1.12535  -1.12532
  Beta  occ. eigenvalues --   -0.19617  -0.13845  -0.11892
  Beta virt. eigenvalues --   -0.07187  -0.06243  -0.04757  -0.03591  -0.02697
  Beta virt. eigenvalues --   -0.01937  -0.01774  -0.01349  -0.00874   0.00107
  Beta virt. eigenvalues --    0.00158   0.00361   0.00395   0.00918   0.00969

 Mulliken charges and spin densities:
               1          2
     1  Na  -0.367378   0.494968
     2  Na   0.043940   0.182620
     3  Na  -0.268896  -0.138021
     4  Na   0.184778   0.124907
     5  Na   0.517153  -0.049761
     6  Na  -0.347104   0.456196
     7  Na   0.237507  -0.070909
 Sum of Mulliken charges =  -0.00000   1.00000

 Dipole moment (field-independent basis, Debye):
    X=             -0.3004    Y=             -0.2247    Z=             -0.0123  Tot=              0.3753
 Quadrupole moment (field-independent basis, Debye-Ang):
   XX=            -49.4138   YY=            -71.3164   ZZ=            -72.5241
   XY=             -0.1498   XZ=              0.0199   YZ=             -0.0013

 Normal termination of Gaussian 16 at Mon Nov 13 19:01:12 2023.
