 Gaussian 16, Revision B.01,
 Gaussian 16:  ES64L-G16RevB.01 20-Dec-2017

 -------------------------
 #P B3LYP/6-311+g(d) force
 -------------------------

 ------------------------------
 Gaussian input prepared by ASE
 ------------------------------
 Symbolic Z-matrix:
 Charge =  0 Multiplicity = 2

                         Standard orientation:
 ---------------------------------------------------------------------
 Center     Atomic      Atomic             Coordinates (Angstroms)
 Number     Number       Type             X           Y           Z
 ---------------------------------------------------------------------
      1         11           0        1.911214   -0.096127    1.537295
      2         11           0       -0.239921   -1.973335    0.613043
      3         11           0        2.276519   -1.662830   -0.990543
      4         11           0        2.643208    1.313717   -1.000332
      5         11           0        0.207501    2.161820    0.531357
      6         11           0       -1.911906    0.278817   -0.463229
      7         11           0       -4.886616   -0.022061   -0.227591
 ---------------------------------------------------------------------

 SCF Done:  E(UB3LYP) =  -1136.09810994     A.U. after   23 cycles

 The electronic state is 2-A.
 Alpha  occ. eigenvalues --  -38.45163 -38.45063 -38.43828 -38.43790 -38.43671
 Alpha  occ. eigenvalues --  -38.43398 -38.43219  -2.21153  -2.20978  -2.19838
 Alpha  occ. eigenvalues --   -2.19745  -2.19675  -2.19388  -2.19210  -1.14877
 Alpha  occ. eigenvalues --   -1.14845  -1.14788  -1.14655  -1.14607  -1.14600
 Alpha  occ. eigenvalues --   -1.13589  -1.13502  -1.13485  -1.13475  -1.13451
 Alpha  occ. eigenvalues --   -1.13382  -1.13370  -1.13314  -1.13272  -1.13046
 Alpha  occ. eigenvalues --   -1.13030  -1.12961  -1.12871  -1.12858  -1.12814
 Alpha  occ. eigenvalues --   -0.19567  -0.14305  -0.12046  -0.11339
 Alpha virt. eigenvalues --   -0.07362  -0.04358  -0.03804  -0.03644  -0.03183
 Alpha virt. eigenvalues --   -0.02538  -0.01912  -0.00867  -0.00581  -0.00198
 Alpha virt. eigenvalues --   -0.00082  -0.00016   0.00387   0.00731   0.00876

  Beta  occ. eigenvalues --  -38.45099 -38.45039 -38.43792 -38.43775 -38.43629
  Beta  occ. eigenvalues --  -38.43371 -38.43196  -2.21117  -2.20859  -2.19756
  Beta  occ. eigenvalues --   -2.19742  -2.19601  -2.19341  -2.19169  -1.14855
  Beta  occ. eigenvalues --   -1.14771  -1.14761  -1.14579  -1.14525  -1.14519
  Beta  occ. eigenvalues --   -1.13519  -1.13471  -1.13438  -1.13422  -1.13414
  Beta  occ. eigenvalues --   -1.13390  -1.13324  -1.13269  -1.13196  -1.13003
  Beta  occ. eigenvalues --   -1.12993  -1.12928  -1.12838  -1.12835  -1.12773
  Beta  occ. eigenvalues --   -0.18912  -0.13573  -0.12000
  Beta virt. eigenvalues --   -0.07579  -0.06947  -0.04255  -0.03707  -0.03079
  Beta virt. eigenvalues --   -0.02766  -0.02189  -0.01282  -0.00704  -0.00243
  Beta virt. eigenvalues --   -0.00038   0.00032   0.00149   0.00500   0.00765

 Mulliken charges and spin densities:
               1          2
     1  Na  -0.952800   0.431163
     2  Na   0.522851  -0.117481
     3  Na   0.351299   0.175040
     4  Na   0.584537   0.234227
     5  Na   1.246597  -0.000572
     6  Na  -1.518514   0.166980
     7  Na  -0.233971   0.110642
 Sum of Mulliken charges =  -0.00000   1.00000

 Dipole moment (field-independent basis, Debye):
    X=             -0.5532    Y=             -0.1202    Z=              0.5106  Tot=              0.7623
 Quadrupole moment (field-independent basis, Debye-Ang):
   XX=            -57.1021   YY=            -74.3775   ZZ=            -65.9631
   XY=              0.7910   XZ=              0.6160   YZ=              0.0347

 Normal termination of Gaussian 16 at Mon Nov 13 16:02:02 2023.
