 Gaussian 16, Revision B.01,
 Gaussian 16:  ES64L-G16RevB.01 20-Dec-2017

 -------------------------
 #P B3LYP/6-311+g(d) force
 -------------------------

 ------------------------------
 Gaussian input prepared by ASE
 ------------------------------
 Symbolic Z-matrix:
 Charge =  0 Multiplicity = 2

                         Standard orientation:
 ---------------------------------------------------------------------
 Center     Atomic      Atomic             Coordinates (Angstroms)
 Number     Number       Type             X           Y           Z
 ---------------------------------------------------------------------
      1         11           0       -2.080339    0.854413    1.042216
      2         11           0       -0.081930    2.248694   -0.711974
      3         11           0       -3.712212   -1.246267   -0.343940
      4         11           0       -0.984311   -0.543237   -1.356152
      5         11           0        0.230622   -1.035109    1.350010
      6         11           0        2.340804    0.907593    0.461444
      7         11           0        4.287366   -1.186088   -0.441603
 ---------------------------------------------------------------------

 SCF Done:  E(UB3LYP) =  -1136.09491469     A.U. after   29 cycles

 The electronic state is 2-A.
 Alpha  occ. eigenvalues --  -38.44889 -38.44643 -38.44549 -38.44209 -38.44143
 Alpha  occ. eigenvalues --  -38.43828 -38.42563  -2.20970  -2.20648  -2.20633
 Alpha  occ. eigenvalues --   -2.20048  -2.20022  -2.19824  -2.18575  -1.14771
 Alpha  occ. eigenvalues --   -1.14665  -1.14604  -1.14422  -1.14307  -1.14294
 Alpha  occ. eigenvalues --   -1.14291  -1.14262  -1.14164  -1.13772  -1.13715
 Alpha  occ. eigenvalues --   -1.13707  -1.13664  -1.13647  -1.13644  -1.13518
 Alpha  occ. eigenvalues --   -1.13486  -1.13410  -1.12268  -1.12234  -1.12181
 Alpha  occ. eigenvalues --   -0.19779  -0.14487  -0.11598  -0.11021
 Alpha virt. eigenvalues --   -0.07355  -0.05342  -0.03785  -0.03175  -0.02912
 Alpha virt. eigenvalues --   -0.02283  -0.01994  -0.01466  -0.00489  -0.00191
 Alpha virt. eigenvalues --   -0.00063   0.00311   0.00376   0.00655   0.00812

  Beta  occ. eigenvalues --  -38.44848 -38.44561 -38.44520 -38.44188 -38.44127
  Beta  occ. eigenvalues --  -38.43820 -38.42545  -2.20899  -2.20600  -2.20491
  Beta  occ. eigenvalues --   -2.20020  -2.19982  -2.19814  -2.18544  -1.14715
  Beta  occ. eigenvalues --   -1.14602  -1.14545  -1.14342  -1.14266  -1.14237
  Beta  occ. eigenvalues --   -1.14206  -1.14174  -1.14062  -1.13747  -1.13698
  Beta  occ. eigenvalues --   -1.13680  -1.13635  -1.13621  -1.13615  -1.13493
  Beta  occ. eigenvalues --   -1.13473  -1.13395  -1.12248  -1.12212  -1.12142
  Beta  occ. eigenvalues --   -0.19044  -0.14139  -0.11377
  Beta virt. eigenvalues --   -0.07338  -0.06939  -0.05179  -0.03159  -0.03014
  Beta virt. eigenvalues --   -0.02782  -0.01825  -0.01453  -0.01014  -0.00212
  Beta virt. eigenvalues --   -0.00132  -0.00003   0.00375   0.00571   0.00712

 Mulliken charges and spin densities:
               1          2
     1  Na   0.507813   0.407792
     2  Na   0.282792  -0.098418
     3  Na   0.321325  -0.262306
     4  Na  -0.797656   0.597154
     5  Na  -0.146237   0.175050
     6  Na  -0.117078   0.240013
     7  Na  -0.050958  -0.059285
 Sum of Mulliken charges =  -0.00000   1.00000

 Dipole moment (field-independent basis, Debye):
    X=             -0.6465    Y=             -0.0131    Z=              0.1112  Tot=              0.6562
 Quadrupole moment (field-independent basis, Debye-Ang):
   XX=            -56.5287   YY=            -69.4475   ZZ=            -71.9610
   XY=             -1.2795   XZ=             -3.6130   YZ=              3.4837

 Normal termination of Gaussian 16 at Mon Nov 13 16:20:09 2023.
