 Gaussian 16, Revision B.01,
 Gaussian 16:  ES64L-G16RevB.01 20-Dec-2017

 -------------------------
 #P B3LYP/6-311+g(d) force
 -------------------------

 ------------------------------
 Gaussian input prepared by ASE
 ------------------------------
 Symbolic Z-matrix:
 Charge =  0 Multiplicity = 2

                         Standard orientation:
 ---------------------------------------------------------------------
 Center     Atomic      Atomic             Coordinates (Angstroms)
 Number     Number       Type             X           Y           Z
 ---------------------------------------------------------------------
      1         11           0        3.443322   -3.243608    0.401924
      2         11           0        2.432347   -0.420147    0.338858
      3         11           0        0.638923    3.672897    1.315156
      4         11           0        1.384326    2.012425   -1.069006
      5         11           0       -0.209418   -0.525621   -1.082357
      6         11           0       -3.142040    0.103422   -0.968629
      7         11           0       -4.547460   -1.599368    1.064054
 ---------------------------------------------------------------------

 SCF Done:  E(UB3LYP) =  -1136.10101549     A.U. after   22 cycles

 The electronic state is 2-A.
 Alpha  occ. eigenvalues --  -38.44713 -38.44417 -38.44415 -38.44202 -38.44049
 Alpha  occ. eigenvalues --  -38.43940 -38.43781  -2.20533  -2.20405  -2.20248
 Alpha  occ. eigenvalues --   -2.20178  -2.19928  -2.19761  -2.19745  -1.14224
 Alpha  occ. eigenvalues --   -1.14192  -1.14167  -1.14160  -1.14074  -1.14033
 Alpha  occ. eigenvalues --   -1.14000  -1.13902  -1.13877  -1.13868  -1.13786
 Alpha  occ. eigenvalues --   -1.13734  -1.13606  -1.13568  -1.13555  -1.13533
 Alpha  occ. eigenvalues --   -1.13432  -1.13410  -1.13384  -1.13380  -1.13266
 Alpha  occ. eigenvalues --   -0.17757  -0.14041  -0.12667  -0.10779
 Alpha virt. eigenvalues --   -0.06719  -0.05194  -0.04305  -0.03724  -0.02927
 Alpha virt. eigenvalues --   -0.02057  -0.01927  -0.01771  -0.01183  -0.00437
 Alpha virt. eigenvalues --   -0.00363   0.00019   0.00299   0.00425   0.00611

  Beta  occ. eigenvalues --  -38.44657 -38.44354 -38.44340 -38.44195 -38.44047
  Beta  occ. eigenvalues --  -38.43917 -38.43779  -2.20427  -2.20270  -2.20176
  Beta  occ. eigenvalues --   -2.20127  -2.19933  -2.19754  -2.19710  -1.14157
  Beta  occ. eigenvalues --   -1.14118  -1.14094  -1.14088  -1.13983  -1.13955
  Beta  occ. eigenvalues --   -1.13930  -1.13896  -1.13797  -1.13791  -1.13753
  Beta  occ. eigenvalues --   -1.13671  -1.13591  -1.13571  -1.13534  -1.13517
  Beta  occ. eigenvalues --   -1.13420  -1.13390  -1.13360  -1.13353  -1.13261
  Beta  occ. eigenvalues --   -0.17179  -0.13588  -0.12112
  Beta virt. eigenvalues --   -0.07592  -0.06124  -0.05036  -0.03993  -0.03401
  Beta virt. eigenvalues --   -0.02659  -0.01861  -0.01618  -0.01504  -0.00934
  Beta virt. eigenvalues --   -0.00191  -0.00051   0.00154   0.00353   0.00584

 Mulliken charges and spin densities:
               1          2
     1  Na  -0.024325   0.107982
     2  Na  -1.143112   0.033765
     3  Na   0.233781   0.215497
     4  Na   1.852007   0.282473
     5  Na  -0.913021   0.089001
     6  Na  -0.331979   0.025482
     7  Na   0.326648   0.245799
 Sum of Mulliken charges =  -0.00000   1.00000

 Dipole moment (field-independent basis, Debye):
    X=             -0.7786    Y=             -0.1224    Z=              0.2892  Tot=              0.8396
 Quadrupole moment (field-independent basis, Debye-Ang):
   XX=            -67.7605   YY=            -63.7004   ZZ=            -67.2858
   XY=             -1.0694   XZ=             -4.3080   YZ=             -1.9147

 Normal termination of Gaussian 16 at Mon Nov 13 16:09:29 2023.
