 Gaussian 16, Revision B.01,
 Gaussian 16:  ES64L-G16RevB.01 20-Dec-2017

 -------------------------
 #P B3LYP/6-311+g(d) force
 -------------------------

 ------------------------------
 Gaussian input prepared by ASE
 ------------------------------
 Symbolic Z-matrix:
 Charge =  0 Multiplicity = 2

                         Standard orientation:
 ---------------------------------------------------------------------
 Center     Atomic      Atomic             Coordinates (Angstroms)
 Number     Number       Type             X           Y           Z
 ---------------------------------------------------------------------
      1         11           0       -1.181362   -2.578096   -1.033207
      2         11           0       -0.996753    2.706406   -0.934098
      3         11           0       -4.393473    0.268985    0.847326
      4         11           0       -1.434101    0.048678    0.392938
      5         11           0        1.281699   -1.065517   -0.242590
      6         11           0        3.645854    0.637948   -0.949704
      7         11           0        3.078135   -0.018404    1.919335
 ---------------------------------------------------------------------

 SCF Done:  E(UB3LYP) =  -1136.09549110     A.U. after   22 cycles

 The electronic state is 2-A.
 Alpha  occ. eigenvalues --  -38.45962 -38.45622 -38.44000 -38.43522 -38.43111
 Alpha  occ. eigenvalues --  -38.42820 -38.42714  -2.21833  -2.21516  -2.19836
 Alpha  occ. eigenvalues --   -2.19345  -2.19207  -2.18804  -2.18720  -1.15559
 Alpha  occ. eigenvalues --   -1.15521  -1.15446  -1.15203  -1.15128  -1.15113
 Alpha  occ. eigenvalues --   -1.13531  -1.13463  -1.13429  -1.13070  -1.12987
 Alpha  occ. eigenvalues --   -1.12968  -1.12940  -1.12902  -1.12836  -1.12550
 Alpha  occ. eigenvalues --   -1.12495  -1.12443  -1.12355  -1.12342  -1.12286
 Alpha  occ. eigenvalues --   -0.18063  -0.14675  -0.11243  -0.10646
 Alpha virt. eigenvalues --   -0.07169  -0.05014  -0.04381  -0.03293  -0.03074
 Alpha virt. eigenvalues --   -0.02029  -0.01902  -0.01045  -0.00857  -0.00360
 Alpha virt. eigenvalues --    0.00041   0.00066   0.00194   0.00602   0.00725

  Beta  occ. eigenvalues --  -38.45965 -38.45590 -38.43910 -38.43464 -38.43099
  Beta  occ. eigenvalues --  -38.42824 -38.42700  -2.21841  -2.21455  -2.19668
  Beta  occ. eigenvalues --   -2.19238  -2.19187  -2.18788  -2.18728  -1.15566
  Beta  occ. eigenvalues --   -1.15516  -1.15440  -1.15162  -1.15083  -1.15077
  Beta  occ. eigenvalues --   -1.13418  -1.13349  -1.13316  -1.13001  -1.12955
  Beta  occ. eigenvalues --   -1.12915  -1.12878  -1.12860  -1.12811  -1.12547
  Beta  occ. eigenvalues --   -1.12448  -1.12405  -1.12350  -1.12347  -1.12291
  Beta  occ. eigenvalues --   -0.17598  -0.14133  -0.10961
  Beta virt. eigenvalues --   -0.07205  -0.06765  -0.04683  -0.04181  -0.02827
  Beta virt. eigenvalues --   -0.02805  -0.01696  -0.01646  -0.00913  -0.00463
  Beta virt. eigenvalues --   -0.00073   0.00093   0.00284   0.00340   0.00712

 Mulliken charges and spin densities:
               1          2
     1  Na   0.331146   0.184028
     2  Na   0.039672   0.361042
     3  Na   0.502388   0.484501
     4  Na  -1.313992  -0.140082
     5  Na  -0.467193   0.181249
     6  Na   0.450127  -0.104631
     7  Na   0.457851   0.033894
 Sum of Mulliken charges =  -0.00000   1.00000

 Dipole moment (field-independent basis, Debye):
    X=              2.4646    Y=              0.1820    Z=             -0.1872  Tot=              2.4784
 Quadrupole moment (field-independent basis, Debye-Ang):
   XX=            -59.1796   YY=            -74.9538   ZZ=            -61.6745
   XY=              4.6821   XZ=             -0.1426   YZ=             -0.8857

 Normal termination of Gaussian 16 at Mon Nov 13 17:13:43 2023.
