 Gaussian 16, Revision B.01,
 Gaussian 16:  ES64L-G16RevB.01 20-Dec-2017

 -------------------------
 #P B3LYP/6-311+g(d) force
 -------------------------

 ------------------------------
 Gaussian input prepared by ASE
 ------------------------------
 Symbolic Z-matrix:
 Charge =  0 Multiplicity = 2

                         Standard orientation:
 ---------------------------------------------------------------------
 Center     Atomic      Atomic             Coordinates (Angstroms)
 Number     Number       Type             X           Y           Z
 ---------------------------------------------------------------------
      1         11           0       -0.537103    0.001551   -1.484551
      2         11           0       -3.151612    0.003133   -0.004114
      3         11           0        2.469091   -0.002322   -1.498742
      4         11           0        2.463175   -0.003300    1.500380
      5         11           0       -0.346150    2.602719    0.001147
      6         11           0       -0.541737   -0.000728    1.486603
      7         11           0       -0.355665   -2.601054   -0.000724
 ---------------------------------------------------------------------

 SCF Done:  E(UB3LYP) =  -1136.11179187     A.U. after   19 cycles

 The electronic state is 2-A.
 Alpha  occ. eigenvalues --  -38.44490 -38.44295 -38.44292 -38.43350 -38.43348
 Alpha  occ. eigenvalues --  -38.42769 -38.42766  -2.20401  -2.20212  -2.20196
 Alpha  occ. eigenvalues --   -2.19569  -2.19548  -2.18690  -2.18686  -1.14140
 Alpha  occ. eigenvalues --   -1.14114  -1.14010  -1.13962  -1.13940  -1.13919
 Alpha  occ. eigenvalues --   -1.13800  -1.13768  -1.13741  -1.13414  -1.13230
 Alpha  occ. eigenvalues --   -1.13198  -1.13175  -1.13168  -1.13118  -1.12415
 Alpha  occ. eigenvalues --   -1.12387  -1.12368  -1.12350  -1.12258  -1.12255
 Alpha  occ. eigenvalues --   -0.19804  -0.13529  -0.11913  -0.11743
 Alpha virt. eigenvalues --   -0.05866  -0.04327  -0.03787  -0.03368  -0.03145
 Alpha virt. eigenvalues --   -0.02581  -0.01770  -0.00575  -0.00462   0.00328
 Alpha virt. eigenvalues --    0.00487   0.00536   0.00606   0.00938   0.01003

  Beta  occ. eigenvalues --  -38.44485 -38.44252 -38.44249 -38.43284 -38.43282
  Beta  occ. eigenvalues --  -38.42764 -38.42762  -2.20395  -2.20136  -2.20120
  Beta  occ. eigenvalues --   -2.19452  -2.19430  -2.18685  -2.18681  -1.14133
  Beta  occ. eigenvalues --   -1.14093  -1.13962  -1.13952  -1.13878  -1.13844
  Beta  occ. eigenvalues --   -1.13749  -1.13717  -1.13689  -1.13336  -1.13152
  Beta  occ. eigenvalues --   -1.13105  -1.13090  -1.13085  -1.13023  -1.12414
  Beta  occ. eigenvalues --   -1.12383  -1.12336  -1.12317  -1.12258  -1.12255
  Beta  occ. eigenvalues --   -0.19071  -0.13300  -0.11495
  Beta virt. eigenvalues --   -0.07708  -0.05831  -0.03828  -0.03601  -0.03315
  Beta virt. eigenvalues --   -0.01929  -0.01854  -0.01701  -0.00553  -0.00112
  Beta virt. eigenvalues --    0.00353   0.00511   0.00586   0.00706   0.00941

 Mulliken charges and spin densities:
               1          2
     1  Na  -0.746299   0.231636
     2  Na   1.212757   0.090463
     3  Na   0.180327   0.073835
     4  Na   0.173845   0.072252
     5  Na  -0.043623   0.147626
     6  Na  -0.735278   0.236933
     7  Na  -0.041730   0.147255
 Sum of Mulliken charges =  -0.00000   1.00000

 Dipole moment (field-independent basis, Debye):
    X=             -0.0631    Y=              0.0001    Z=             -0.0013  Tot=              0.0631
 Quadrupole moment (field-independent basis, Debye-Ang):
   XX=            -53.6585   YY=            -71.0274   ZZ=            -67.8978
   XY=             -0.0039   XZ=              0.0034   YZ=              0.0071

 Normal termination of Gaussian 16 at Mon Nov 13 18:36:21 2023.
