 Gaussian 16, Revision B.01,
 Gaussian 16:  ES64L-G16RevB.01 20-Dec-2017

 -------------------------
 #P B3LYP/6-311+g(d) force
 -------------------------

 ------------------------------
 Gaussian input prepared by ASE
 ------------------------------
 Symbolic Z-matrix:
 Charge =  0 Multiplicity = 2

                         Standard orientation:
 ---------------------------------------------------------------------
 Center     Atomic      Atomic             Coordinates (Angstroms)
 Number     Number       Type             X           Y           Z
 ---------------------------------------------------------------------
      1         11           0        0.993787   -1.013674    1.576446
      2         11           0        1.591836   -1.281359   -1.379763
      3         11           0       -1.521230    3.073198   -0.007309
      4         11           0        0.681125    1.369289   -0.252261
      5         11           0        2.953220    0.185841    0.312948
      6         11           0       -1.007433   -0.883895   -0.393777
      7         11           0       -3.691306   -1.449400    0.143716
 ---------------------------------------------------------------------

 SCF Done:  E(UB3LYP) =  -1136.05336090     A.U. after   23 cycles

 The electronic state is 2-A.
 Alpha  occ. eigenvalues --  -38.46253 -38.45566 -38.44921 -38.44591 -38.43875
 Alpha  occ. eigenvalues --  -38.43755 -38.43397  -2.22446  -2.21366  -2.21090
 Alpha  occ. eigenvalues --   -2.20778  -2.19943  -2.19722  -2.19664  -1.16366
 Alpha  occ. eigenvalues --   -1.16154  -1.16108  -1.15146  -1.14997  -1.14986
 Alpha  occ. eigenvalues --   -1.14867  -1.14708  -1.14648  -1.14515  -1.14414
 Alpha  occ. eigenvalues --   -1.14294  -1.13755  -1.13654  -1.13554  -1.13515
 Alpha  occ. eigenvalues --   -1.13350  -1.13326  -1.13243  -1.13225  -1.13164
 Alpha  occ. eigenvalues --   -0.20864  -0.13858  -0.12119  -0.11401
 Alpha virt. eigenvalues --   -0.07277  -0.05637  -0.03353  -0.03312  -0.02610
 Alpha virt. eigenvalues --   -0.02098  -0.02026  -0.00992  -0.00315   0.00013
 Alpha virt. eigenvalues --    0.00103   0.00317   0.00403   0.00661   0.00965

  Beta  occ. eigenvalues --  -38.46211 -38.45586 -38.44838 -38.44512 -38.43886
  Beta  occ. eigenvalues --  -38.43724 -38.43365  -2.22382  -2.21403  -2.20942
  Beta  occ. eigenvalues --   -2.20638  -2.19893  -2.19735  -2.19623  -1.16334
  Beta  occ. eigenvalues --   -1.16068  -1.16014  -1.15169  -1.15020  -1.15013
  Beta  occ. eigenvalues --   -1.14776  -1.14599  -1.14532  -1.14409  -1.14324
  Beta  occ. eigenvalues --   -1.14169  -1.13733  -1.13654  -1.13491  -1.13449
  Beta  occ. eigenvalues --   -1.13356  -1.13339  -1.13210  -1.13189  -1.13089
  Beta  occ. eigenvalues --   -0.19903  -0.13739  -0.12004
  Beta virt. eigenvalues --   -0.07103  -0.06900  -0.05414  -0.03330  -0.02751
  Beta virt. eigenvalues --   -0.02472  -0.01499  -0.01266  -0.00791   0.00010
  Beta virt. eigenvalues --    0.00088   0.00132   0.00416   0.00643   0.00704

 Mulliken charges and spin densities:
               1          2
     1  Na  -0.681882   0.252225
     2  Na   0.253689   0.017648
     3  Na   0.021049  -0.237197
     4  Na   0.512717   0.596376
     5  Na   0.104457   0.238975
     6  Na  -0.331580   0.244692
     7  Na   0.121549  -0.112718
 Sum of Mulliken charges =  -0.00000   1.00000

 Dipole moment (field-independent basis, Debye):
    X=             -0.6426    Y=             -0.3488    Z=              0.1926  Tot=              0.7561
 Quadrupole moment (field-independent basis, Debye-Ang):
   XX=            -47.8059   YY=            -70.5343   ZZ=            -73.5401
   XY=             -1.1708   XZ=             -1.8401   YZ=              0.5800

 Normal termination of Gaussian 16 at Mon Nov 13 16:10:34 2023.
