 Gaussian 16, Revision B.01,
 Gaussian 16:  ES64L-G16RevB.01 20-Dec-2017

 -------------------------
 #P B3LYP/6-311+g(d) force
 -------------------------

 ------------------------------
 Gaussian input prepared by ASE
 ------------------------------
 Symbolic Z-matrix:
 Charge =  0 Multiplicity = 2

                         Standard orientation:
 ---------------------------------------------------------------------
 Center     Atomic      Atomic             Coordinates (Angstroms)
 Number     Number       Type             X           Y           Z
 ---------------------------------------------------------------------
      1         11           0       -0.289733   -1.520331   -0.863051
      2         11           0        0.525698   -0.214051    1.716814
      3         11           0        2.579172   -1.539332   -0.004443
      4         11           0        2.323124    1.441292   -0.019143
      5         11           0       -0.193801    1.382809   -1.655022
      6         11           0       -1.807999    1.484516    0.880492
      7         11           0       -3.136461   -1.034902   -0.055647
 ---------------------------------------------------------------------

 SCF Done:  E(UB3LYP) =  -1136.10644477     A.U. after   21 cycles

 The electronic state is 2-A.
 Alpha  occ. eigenvalues --  -38.44678 -38.44018 -38.44017 -38.43819 -38.43755
 Alpha  occ. eigenvalues --  -38.43383 -38.43122  -2.20569  -2.20131  -2.20007
 Alpha  occ. eigenvalues --   -2.19804  -2.19760  -2.19405  -2.19215  -1.14273
 Alpha  occ. eigenvalues --   -1.14264  -1.14187  -1.13935  -1.13852  -1.13807
 Alpha  occ. eigenvalues --   -1.13703  -1.13686  -1.13592  -1.13494  -1.13459
 Alpha  occ. eigenvalues --   -1.13448  -1.13396  -1.13391  -1.13356  -1.13149
 Alpha  occ. eigenvalues --   -1.13012  -1.12999  -1.12881  -1.12830  -1.12808
 Alpha  occ. eigenvalues --   -0.20276  -0.14368  -0.11751  -0.11672
 Alpha virt. eigenvalues --   -0.06298  -0.04951  -0.03993  -0.03408  -0.02682
 Alpha virt. eigenvalues --   -0.02538  -0.01992  -0.00804  -0.00132   0.00233
 Alpha virt. eigenvalues --    0.00303   0.00470   0.00834   0.00875   0.00927

  Beta  occ. eigenvalues --  -38.44679 -38.44008 -38.43942 -38.43814 -38.43725
  Beta  occ. eigenvalues --  -38.43321 -38.43081  -2.20573  -2.20003  -2.19986
  Beta  occ. eigenvalues --   -2.19798  -2.19709  -2.19292  -2.19146  -1.14270
  Beta  occ. eigenvalues --   -1.14265  -1.14179  -1.13876  -1.13763  -1.13725
  Beta  occ. eigenvalues --   -1.13675  -1.13665  -1.13538  -1.13480  -1.13424
  Beta  occ. eigenvalues --   -1.13402  -1.13388  -1.13339  -1.13327  -1.13068
  Beta  occ. eigenvalues --   -1.12934  -1.12918  -1.12829  -1.12783  -1.12730
  Beta  occ. eigenvalues --   -0.19492  -0.14094  -0.11496
  Beta virt. eigenvalues --   -0.07562  -0.06214  -0.04897  -0.03220  -0.03165
  Beta virt. eigenvalues --   -0.02045  -0.01916  -0.01493  -0.00760   0.00068
  Beta virt. eigenvalues --    0.00241   0.00316   0.00475   0.00863   0.00914

 Mulliken charges and spin densities:
               1          2
     1  Na  -0.061928   0.276026
     2  Na  -0.303970   0.306713
     3  Na   0.504934   0.086342
     4  Na   0.034679   0.050585
     5  Na  -0.042896   0.257003
     6  Na   0.216545   0.063841
     7  Na  -0.347364  -0.040510
 Sum of Mulliken charges =  -0.00000   1.00000

 Dipole moment (field-independent basis, Debye):
    X=             -0.2503    Y=              0.1255    Z=              0.0120  Tot=              0.2803
 Quadrupole moment (field-independent basis, Debye-Ang):
   XX=            -50.8411   YY=            -74.0984   ZZ=            -70.0778
   XY=              0.3386   XZ=             -0.7185   YZ=              0.9318

 Normal termination of Gaussian 16 at Mon Nov 13 16:39:43 2023.
