 Gaussian 16, Revision B.01,
 Gaussian 16:  ES64L-G16RevB.01 20-Dec-2017

 -------------------------
 #P B3LYP/6-311+g(d) force
 -------------------------

 ------------------------------
 Gaussian input prepared by ASE
 ------------------------------
 Symbolic Z-matrix:
 Charge =  0 Multiplicity = 2

                         Standard orientation:
 ---------------------------------------------------------------------
 Center     Atomic      Atomic             Coordinates (Angstroms)
 Number     Number       Type             X           Y           Z
 ---------------------------------------------------------------------
      1         11           0       -1.217054    1.845772   -1.336814
      2         11           0       -0.041272    2.111474    1.406146
      3         11           0       -4.043561   -1.917250   -0.393405
      4         11           0       -1.989511   -0.094957    0.812184
      5         11           0        0.774563   -0.174314   -0.356410
      6         11           0        2.955576   -1.375550    1.318774
      7         11           0        3.561261   -0.395176   -1.450476
 ---------------------------------------------------------------------

 SCF Done:  E(UB3LYP) =  -1136.09681128     A.U. after   30 cycles

 The electronic state is 2-A.
 Alpha  occ. eigenvalues --  -38.44921 -38.44895 -38.44500 -38.44046 -38.43727
 Alpha  occ. eigenvalues --  -38.42971 -38.42657  -2.20822  -2.20789  -2.20495
 Alpha  occ. eigenvalues --   -2.20227  -2.19734  -2.19059  -2.18469  -1.14625
 Alpha  occ. eigenvalues --   -1.14516  -1.14486  -1.14447  -1.14406  -1.14323
 Alpha  occ. eigenvalues --   -1.14267  -1.14154  -1.14100  -1.13950  -1.13875
 Alpha  occ. eigenvalues --   -1.13842  -1.13434  -1.13368  -1.13331  -1.12758
 Alpha  occ. eigenvalues --   -1.12712  -1.12693  -1.12135  -1.12114  -1.12104
 Alpha  occ. eigenvalues --   -0.19175  -0.14727  -0.11271  -0.10977
 Alpha virt. eigenvalues --   -0.06283  -0.05683  -0.04835  -0.03091  -0.02524
 Alpha virt. eigenvalues --   -0.01978  -0.01923  -0.01081  -0.01042  -0.00128
 Alpha virt. eigenvalues --    0.00117   0.00193   0.00443   0.00664   0.00717

  Beta  occ. eigenvalues --  -38.44893 -38.44871 -38.44454 -38.44007 -38.43696
  Beta  occ. eigenvalues --  -38.42953 -38.42663  -2.20770  -2.20744  -2.20410
  Beta  occ. eigenvalues --   -2.20171  -2.19679  -2.19030  -2.18480  -1.14598
  Beta  occ. eigenvalues --   -1.14469  -1.14446  -1.14411  -1.14373  -1.14284
  Beta  occ. eigenvalues --   -1.14218  -1.14084  -1.14039  -1.13873  -1.13836
  Beta  occ. eigenvalues --   -1.13757  -1.13396  -1.13333  -1.13265  -1.12744
  Beta  occ. eigenvalues --   -1.12684  -1.12653  -1.12141  -1.12121  -1.12110
  Beta  occ. eigenvalues --   -0.18390  -0.14540  -0.11232
  Beta virt. eigenvalues --   -0.07121  -0.06009  -0.05012  -0.04466  -0.02996
  Beta virt. eigenvalues --   -0.02083  -0.01757  -0.01563  -0.00981  -0.00487
  Beta virt. eigenvalues --    0.00029   0.00180   0.00362   0.00649   0.00711

 Mulliken charges and spin densities:
               1          2
     1  Na  -0.082995   0.305734
     2  Na   1.642295  -0.170611
     3  Na   0.121236  -0.043495
     4  Na   0.253621   0.229887
     5  Na  -1.972858   1.018284
     6  Na   0.492970  -0.041695
     7  Na  -0.454268  -0.298104
 Sum of Mulliken charges =  -0.00000   1.00000

 Dipole moment (field-independent basis, Debye):
    X=              2.5552    Y=              1.0285    Z=             -0.0690  Tot=              2.7553
 Quadrupole moment (field-independent basis, Debye-Ang):
   XX=            -60.5074   YY=            -67.9953   ZZ=            -66.2780
   XY=             -5.2663   XZ=              2.1566   YZ=             -0.6648

 Normal termination of Gaussian 16 at Mon Nov 13 17:48:53 2023.
