 Gaussian 16, Revision B.01,
 Gaussian 16:  ES64L-G16RevB.01 20-Dec-2017

 -------------------------
 #P B3LYP/6-311+g(d) force
 -------------------------

 ------------------------------
 Gaussian input prepared by ASE
 ------------------------------
 Symbolic Z-matrix:
 Charge =  0 Multiplicity = 2

                         Standard orientation:
 ---------------------------------------------------------------------
 Center     Atomic      Atomic             Coordinates (Angstroms)
 Number     Number       Type             X           Y           Z
 ---------------------------------------------------------------------
      1         11           0        0.000449    0.116921   -1.446948
      2         11           0        2.617136    0.602350   -0.000261
      3         11           0       -0.010282    2.785291    0.000502
      4         11           0       -0.001358    0.113145    1.449353
      5         11           0        1.474955   -2.093791   -0.000428
      6         11           0       -1.457239   -2.107026   -0.001617
      7         11           0       -2.623660    0.583111   -0.000602
 ---------------------------------------------------------------------

 SCF Done:  E(UB3LYP) =  -1136.10630423     A.U. after   22 cycles

 The electronic state is 2-A.
 Alpha  occ. eigenvalues --  -38.43633 -38.43633 -38.43510 -38.43436 -38.43434
 Alpha  occ. eigenvalues --  -38.42915 -38.42915  -2.19657  -2.19653  -2.19527
 Alpha  occ. eigenvalues --   -2.19498  -2.19474  -2.19224  -2.19187  -1.13532
 Alpha  occ. eigenvalues --   -1.13515  -1.13426  -1.13359  -1.13327  -1.13321
 Alpha  occ. eigenvalues --   -1.13303  -1.13211  -1.13188  -1.13144  -1.13139
 Alpha  occ. eigenvalues --   -1.13127  -1.13114  -1.13067  -1.13011  -1.13000
 Alpha  occ. eigenvalues --   -1.12779  -1.12772  -1.12769  -1.12761  -1.12738
 Alpha  occ. eigenvalues --   -0.20854  -0.13619  -0.13385  -0.10874
 Alpha virt. eigenvalues --   -0.05128  -0.04919  -0.04605  -0.02998  -0.02850
 Alpha virt. eigenvalues --   -0.01788  -0.01171  -0.01099   0.00084   0.00250
 Alpha virt. eigenvalues --    0.00372   0.00380   0.00969   0.00978   0.01058

  Beta  occ. eigenvalues --  -38.43623 -38.43622 -38.43502 -38.43423 -38.43421
  Beta  occ. eigenvalues --  -38.42837 -38.42837  -2.19644  -2.19640  -2.19510
  Beta  occ. eigenvalues --   -2.19481  -2.19464  -2.19086  -2.19047  -1.13517
  Beta  occ. eigenvalues --   -1.13503  -1.13417  -1.13346  -1.13317  -1.13270
  Beta  occ. eigenvalues --   -1.13249  -1.13203  -1.13132  -1.13126  -1.13119
  Beta  occ. eigenvalues --   -1.13092  -1.13066  -1.13048  -1.12996  -1.12937
  Beta  occ. eigenvalues --   -1.12687  -1.12672  -1.12671  -1.12671  -1.12635
  Beta  occ. eigenvalues --   -0.20092  -0.13272  -0.13052
  Beta virt. eigenvalues --   -0.06783  -0.05130  -0.04934  -0.04587  -0.02098
  Beta virt. eigenvalues --   -0.01983  -0.01104  -0.01038  -0.00800   0.00207
  Beta virt. eigenvalues --    0.00209   0.00335   0.00417   0.00986   0.00996

 Mulliken charges and spin densities:
               1          2
     1  Na  -0.878507   0.467291
     2  Na   0.358668  -0.013292
     3  Na   0.218702  -0.084008
     4  Na  -0.873287   0.470697
     5  Na   0.410415   0.087457
     6  Na   0.409604   0.086537
     7  Na   0.354405  -0.014681
 Sum of Mulliken charges =  -0.00000   1.00000

 Dipole moment (field-independent basis, Debye):
    X=             -0.0052    Y=              0.3649    Z=              0.0018  Tot=              0.3649
 Quadrupole moment (field-independent basis, Debye-Ang):
   XX=            -58.5123   YY=            -59.4645   ZZ=            -75.0969
   XY=             -0.0009   XZ=              0.0040   YZ=              0.0086

 Normal termination of Gaussian 16 at Mon Nov 13 20:17:31 2023.
