 Gaussian 16, Revision B.01,
 Gaussian 16:  ES64L-G16RevB.01 20-Dec-2017

 -------------------------
 #P B3LYP/6-311+g(d) force
 -------------------------

 ------------------------------
 Gaussian input prepared by ASE
 ------------------------------
 Symbolic Z-matrix:
 Charge =  0 Multiplicity = 2

                         Standard orientation:
 ---------------------------------------------------------------------
 Center     Atomic      Atomic             Coordinates (Angstroms)
 Number     Number       Type             X           Y           Z
 ---------------------------------------------------------------------
      1         11           0        0.602385    0.785077    0.703997
      2         11           0       -1.522466   -0.956692    1.913498
      3         11           0       -0.647892    3.200187   -0.563468
      4         11           0       -2.098276    0.578997   -0.588284
      5         11           0       -1.331491   -2.322030   -0.752201
      6         11           0        1.490779   -1.376561   -1.185668
      7         11           0        3.506961    0.091021    0.472126
 ---------------------------------------------------------------------

 SCF Done:  E(UB3LYP) =  -1136.10699383     A.U. after   19 cycles

 The electronic state is 2-A.
 Alpha  occ. eigenvalues --  -38.44243 -38.44150 -38.43773 -38.43646 -38.43583
 Alpha  occ. eigenvalues --  -38.43458 -38.43044  -2.20159  -2.20132  -2.19758
 Alpha  occ. eigenvalues --   -2.19732  -2.19585  -2.19354  -2.19228  -1.13914
 Alpha  occ. eigenvalues --   -1.13872  -1.13812  -1.13808  -1.13774  -1.13747
 Alpha  occ. eigenvalues --   -1.13513  -1.13474  -1.13456  -1.13438  -1.13371
 Alpha  occ. eigenvalues --   -1.13363  -1.13202  -1.13187  -1.13180  -1.13089
 Alpha  occ. eigenvalues --   -1.12985  -1.12964  -1.12897  -1.12876  -1.12785
 Alpha  occ. eigenvalues --   -0.19681  -0.13603  -0.12848  -0.11233
 Alpha virt. eigenvalues --   -0.05768  -0.04966  -0.04322  -0.03309  -0.03040
 Alpha virt. eigenvalues --   -0.02273  -0.01439  -0.00967  -0.00270   0.00097
 Alpha virt. eigenvalues --    0.00310   0.00498   0.00744   0.00814   0.00992

  Beta  occ. eigenvalues --  -38.44239 -38.44066 -38.43738 -38.43625 -38.43555
  Beta  occ. eigenvalues --  -38.43450 -38.43012  -2.20125  -2.20004  -2.19700
  Beta  occ. eigenvalues --   -2.19698  -2.19539  -2.19338  -2.19176  -1.13868
  Beta  occ. eigenvalues --   -1.13820  -1.13797  -1.13740  -1.13697  -1.13671
  Beta  occ. eigenvalues --   -1.13476  -1.13456  -1.13431  -1.13394  -1.13310
  Beta  occ. eigenvalues --   -1.13297  -1.13165  -1.13159  -1.13118  -1.13074
  Beta  occ. eigenvalues --   -1.12966  -1.12953  -1.12866  -1.12803  -1.12749
  Beta  occ. eigenvalues --   -0.18940  -0.13455  -0.12530
  Beta virt. eigenvalues --   -0.07239  -0.05559  -0.04755  -0.04077  -0.02870
  Beta virt. eigenvalues --   -0.02402  -0.01539  -0.01231  -0.00873   0.00030
  Beta virt. eigenvalues --    0.00138   0.00376   0.00595   0.00811   0.00936

 Mulliken charges and spin densities:
               1          2
     1  Na  -1.518236   0.296661
     2  Na   0.474643  -0.005460
     3  Na   0.282200  -0.138235
     4  Na  -0.014148   0.568052
     5  Na   0.291378   0.002962
     6  Na  -0.334750   0.152728
     7  Na   0.818914   0.123292
 Sum of Mulliken charges =  -0.00000   1.00000

 Dipole moment (field-independent basis, Debye):
    X=              0.4383    Y=             -0.1128    Z=              0.0787  Tot=              0.4594
 Quadrupole moment (field-independent basis, Debye-Ang):
   XX=            -58.7836   YY=            -64.7484   ZZ=            -70.2556
   XY=              2.2984   XZ=              1.0984   YZ=             -0.4548

 Normal termination of Gaussian 16 at Mon Nov 13 16:16:51 2023.
