 Gaussian 16, Revision B.01,
 Gaussian 16:  ES64L-G16RevB.01 20-Dec-2017

 -------------------------
 #P B3LYP/6-311+g(d) force
 -------------------------

 ------------------------------
 Gaussian input prepared by ASE
 ------------------------------
 Symbolic Z-matrix:
 Charge =  0 Multiplicity = 2

                         Standard orientation:
 ---------------------------------------------------------------------
 Center     Atomic      Atomic             Coordinates (Angstroms)
 Number     Number       Type             X           Y           Z
 ---------------------------------------------------------------------
      1         11           0       -0.119812    0.832001   -1.248473
      2         11           0        0.057750   -2.117379   -1.722156
      3         11           0        2.213523    2.224386    0.019391
      4         11           0        2.054293   -0.763380    0.068027
      5         11           0        0.251739   -0.990764    2.462834
      6         11           0       -1.859980   -1.039713    0.324256
      7         11           0       -2.597513    1.854848    0.096122
 ---------------------------------------------------------------------

 SCF Done:  E(UB3LYP) =  -1136.10521376     A.U. after   20 cycles

 The electronic state is 2-A.
 Alpha  occ. eigenvalues --  -38.45373 -38.44217 -38.43491 -38.43410 -38.43245
 Alpha  occ. eigenvalues --  -38.43233 -38.43153  -2.21288  -2.20214  -2.19383
 Alpha  occ. eigenvalues --   -2.19349  -2.19328  -2.19313  -2.19298  -1.14959
 Alpha  occ. eigenvalues --   -1.14950  -1.14860  -1.13965  -1.13873  -1.13804
 Alpha  occ. eigenvalues --   -1.13257  -1.13205  -1.13132  -1.13084  -1.13048
 Alpha  occ. eigenvalues --   -1.13024  -1.13006  -1.13000  -1.12983  -1.12926
 Alpha  occ. eigenvalues --   -1.12899  -1.12891  -1.12844  -1.12826  -1.12821
 Alpha  occ. eigenvalues --   -0.19944  -0.13052  -0.12669  -0.12281
 Alpha virt. eigenvalues --   -0.04945  -0.04785  -0.04198  -0.03673  -0.03341
 Alpha virt. eigenvalues --   -0.03103  -0.00904  -0.00853  -0.00355   0.00330
 Alpha virt. eigenvalues --    0.00538   0.00670   0.00846   0.00922   0.00972

  Beta  occ. eigenvalues --  -38.45261 -38.44148 -38.43495 -38.43413 -38.43229
  Beta  occ. eigenvalues --  -38.43215 -38.43112  -2.21082  -2.20091  -2.19389
  Beta  occ. eigenvalues --   -2.19320  -2.19300  -2.19292  -2.19267  -1.14824
  Beta  occ. eigenvalues --   -1.14799  -1.14719  -1.13873  -1.13787  -1.13718
  Beta  occ. eigenvalues --   -1.13244  -1.13192  -1.13102  -1.13077  -1.13029
  Beta  occ. eigenvalues --   -1.13006  -1.12986  -1.12959  -1.12931  -1.12915
  Beta  occ. eigenvalues --   -1.12872  -1.12844  -1.12837  -1.12821  -1.12794
  Beta  occ. eigenvalues --   -0.19089  -0.12817  -0.12116
  Beta virt. eigenvalues --   -0.08390  -0.04812  -0.04682  -0.03641  -0.02863
  Beta virt. eigenvalues --   -0.02778  -0.02397  -0.00830  -0.00770  -0.00112
  Beta virt. eigenvalues --    0.00375   0.00548   0.00676   0.00916   0.01011

 Mulliken charges and spin densities:
               1          2
     1  Na   0.087099   0.261277
     2  Na   0.662951   0.233955
     3  Na  -0.182161  -0.006870
     4  Na  -0.329494   0.066012
     5  Na   0.217207   0.315272
     6  Na  -0.308795   0.131432
     7  Na  -0.146807  -0.001079
 Sum of Mulliken charges =  -0.00000   1.00000

 Dipole moment (field-independent basis, Debye):
    X=              0.0273    Y=             -0.1632    Z=              0.7000  Tot=              0.7192
 Quadrupole moment (field-independent basis, Debye-Ang):
   XX=            -66.3490   YY=            -66.1077   ZZ=            -63.4981
   XY=             -0.3457   XZ=              0.0178   YZ=              2.7476

 Normal termination of Gaussian 16 at Mon Nov 13 16:23:37 2023.
