 Gaussian 16, Revision B.01,
 Gaussian 16:  ES64L-G16RevB.01 20-Dec-2017

 -------------------------
 #P B3LYP/6-311+g(d) force
 -------------------------

 ------------------------------
 Gaussian input prepared by ASE
 ------------------------------
 Symbolic Z-matrix:
 Charge =  0 Multiplicity = 2

                         Standard orientation:
 ---------------------------------------------------------------------
 Center     Atomic      Atomic             Coordinates (Angstroms)
 Number     Number       Type             X           Y           Z
 ---------------------------------------------------------------------
      1         11           0       -0.000276   -0.060582   -1.422198
      2         11           0        0.004952   -2.414060    0.310712
      3         11           0       -2.579314   -0.871320   -0.266345
      4         11           0       -1.541605    2.002255   -0.033166
      5         11           0        0.000418    0.194986    1.710826
      6         11           0        1.530803    2.009394   -0.032539
      7         11           0        2.585021   -0.860672   -0.267290
 ---------------------------------------------------------------------

 SCF Done:  E(UB3LYP) =  -1136.10569296     A.U. after   20 cycles

 The electronic state is 2-A.
 Alpha  occ. eigenvalues --  -38.43589 -38.43588 -38.43384 -38.43350 -38.43349
 Alpha  occ. eigenvalues --  -38.43240 -38.43230  -2.19612  -2.19602  -2.19581
 Alpha  occ. eigenvalues --   -2.19560  -2.19421  -2.19411  -2.19295  -1.13554
 Alpha  occ. eigenvalues --   -1.13530  -1.13466  -1.13331  -1.13304  -1.13303
 Alpha  occ. eigenvalues --   -1.13282  -1.13258  -1.13211  -1.13187  -1.13166
 Alpha  occ. eigenvalues --   -1.13131  -1.13068  -1.13006  -1.12999  -1.12998
 Alpha  occ. eigenvalues --   -1.12992  -1.12930  -1.12912  -1.12889  -1.12865
 Alpha  occ. eigenvalues --   -0.20979  -0.13668  -0.13193  -0.11374
 Alpha virt. eigenvalues --   -0.05086  -0.04661  -0.04426  -0.03221  -0.03024
 Alpha virt. eigenvalues --   -0.02274  -0.01187  -0.00803   0.00016   0.00343
 Alpha virt. eigenvalues --    0.00502   0.00515   0.00962   0.01069   0.01078

  Beta  occ. eigenvalues --  -38.43579 -38.43578 -38.43338 -38.43337 -38.43292
  Beta  occ. eigenvalues --  -38.43215 -38.43166  -2.19588  -2.19588  -2.19455
  Beta  occ. eigenvalues --   -2.19414  -2.19395  -2.19390  -2.19273  -1.13502
  Beta  occ. eigenvalues --   -1.13484  -1.13417  -1.13298  -1.13290  -1.13228
  Beta  occ. eigenvalues --   -1.13223  -1.13206  -1.13168  -1.13139  -1.13084
  Beta  occ. eigenvalues --   -1.13075  -1.13051  -1.12971  -1.12945  -1.12932
  Beta  occ. eigenvalues --   -1.12923  -1.12915  -1.12870  -1.12858  -1.12819
  Beta  occ. eigenvalues --   -0.20215  -0.13319  -0.12854
  Beta virt. eigenvalues --   -0.07258  -0.05091  -0.04644  -0.04427  -0.02336
  Beta virt. eigenvalues --   -0.02126  -0.01190  -0.01109  -0.00756   0.00144
  Beta virt. eigenvalues --    0.00371   0.00467   0.00469   0.00992   0.01064

 Mulliken charges and spin densities:
               1          2
     1  Na  -1.237428   0.295661
     2  Na   0.537119   0.106143
     3  Na   0.236869   0.000165
     4  Na   0.461396   0.027136
     5  Na  -0.693813   0.544549
     6  Na   0.461507   0.026946
     7  Na   0.234349  -0.000600
 Sum of Mulliken charges =  -0.00000   1.00000

 Dipole moment (field-independent basis, Debye):
    X=              0.0026    Y=             -0.0543    Z=              0.1948  Tot=              0.2023
 Quadrupole moment (field-independent basis, Debye-Ang):
   XX=            -58.0642   YY=            -63.9730   ZZ=            -72.6634
   XY=             -0.0015   XZ=             -0.0031   YZ=             -0.3859

 Normal termination of Gaussian 16 at Mon Nov 13 19:37:13 2023.
