 Gaussian 16, Revision B.01,
 Gaussian 16:  ES64L-G16RevB.01 20-Dec-2017

 -------------------------
 #P B3LYP/6-311+g(d) force
 -------------------------

 ------------------------------
 Gaussian input prepared by ASE
 ------------------------------
 Symbolic Z-matrix:
 Charge =  0 Multiplicity = 2

                         Standard orientation:
 ---------------------------------------------------------------------
 Center     Atomic      Atomic             Coordinates (Angstroms)
 Number     Number       Type             X           Y           Z
 ---------------------------------------------------------------------
      1         11           0        0.000509    0.033797    1.429604
      2         11           0        2.592417    0.687281   -0.000076
      3         11           0        1.663986   -2.058349    0.000191
      4         11           0       -0.015103    2.715174   -0.000222
      5         11           0        0.000121    0.036586   -1.429041
      6         11           0       -1.640379   -2.076149   -0.001941
      7         11           0       -2.601551    0.661660    0.001485
 ---------------------------------------------------------------------

 SCF Done:  E(UB3LYP) =  -1136.10763912     A.U. after   21 cycles

 The electronic state is 2-A.
 Alpha  occ. eigenvalues --  -38.43703 -38.43703 -38.43439 -38.43434 -38.43258
 Alpha  occ. eigenvalues --  -38.42896 -38.42896  -2.19741  -2.19738  -2.19476
 Alpha  occ. eigenvalues --   -2.19469  -2.19248  -2.19209  -2.19170  -1.13589
 Alpha  occ. eigenvalues --   -1.13584  -1.13423  -1.13409  -1.13400  -1.13381
 Alpha  occ. eigenvalues --   -1.13288  -1.13150  -1.13138  -1.13108  -1.13108
 Alpha  occ. eigenvalues --   -1.13076  -1.13022  -1.12952  -1.12932  -1.12849
 Alpha  occ. eigenvalues --   -1.12773  -1.12761  -1.12728  -1.12714  -1.12711
 Alpha  occ. eigenvalues --   -0.20794  -0.13812  -0.13213  -0.10788
 Alpha virt. eigenvalues --   -0.05246  -0.04784  -0.04670  -0.03105  -0.02688
 Alpha virt. eigenvalues --   -0.01731  -0.01255  -0.01043   0.00090   0.00244
 Alpha virt. eigenvalues --    0.00292   0.00390   0.00935   0.01014   0.01031

  Beta  occ. eigenvalues --  -38.43692 -38.43692 -38.43428 -38.43423 -38.43249
  Beta  occ. eigenvalues --  -38.42819 -38.42819  -2.19727  -2.19724  -2.19462
  Beta  occ. eigenvalues --   -2.19455  -2.19234  -2.19075  -2.19031  -1.13578
  Beta  occ. eigenvalues --   -1.13572  -1.13417  -1.13405  -1.13342  -1.13324
  Beta  occ. eigenvalues --   -1.13267  -1.13142  -1.13077  -1.13077  -1.13055
  Beta  occ. eigenvalues --   -1.13049  -1.13019  -1.12906  -1.12877  -1.12847
  Beta  occ. eigenvalues --   -1.12681  -1.12660  -1.12635  -1.12632  -1.12614
  Beta  occ. eigenvalues --   -0.20040  -0.13458  -0.12889
  Beta virt. eigenvalues --   -0.06711  -0.05259  -0.04764  -0.04674  -0.02184
  Beta virt. eigenvalues --   -0.01850  -0.01179  -0.00987  -0.00754   0.00213
  Beta virt. eigenvalues --    0.00214   0.00246   0.00431   0.00951   0.01025

 Mulliken charges and spin densities:
               1          2
     1  Na  -0.860369   0.489332
     2  Na   0.333595   0.005328
     3  Na   0.379447   0.026825
     4  Na   0.301877  -0.040552
     5  Na  -0.862035   0.488785
     6  Na   0.378324   0.026201
     7  Na   0.329160   0.004080
 Sum of Mulliken charges =  -0.00000   1.00000

 Dipole moment (field-independent basis, Debye):
    X=             -0.0038    Y=              0.1097    Z=              0.0004  Tot=              0.1097
 Quadrupole moment (field-independent basis, Debye-Ang):
   XX=            -57.3764   YY=            -59.9611   ZZ=            -75.4486
   XY=             -0.0084   XZ=             -0.0013   YZ=              0.0069

 Normal termination of Gaussian 16 at Mon Nov 13 20:36:18 2023.
