 Gaussian 16, Revision B.01,
 Gaussian 16:  ES64L-G16RevB.01 20-Dec-2017

 -------------------------
 #P B3LYP/6-311+g(d) force
 -------------------------

 ------------------------------
 Gaussian input prepared by ASE
 ------------------------------
 Symbolic Z-matrix:
 Charge =  0 Multiplicity = 2

                         Standard orientation:
 ---------------------------------------------------------------------
 Center     Atomic      Atomic             Coordinates (Angstroms)
 Number     Number       Type             X           Y           Z
 ---------------------------------------------------------------------
      1         11           0        0.956173    0.280754   -1.720045
      2         11           0        1.528191   -2.000909   -0.225031
      3         11           0        2.733831    0.811661    0.384281
      4         11           0       -0.073210    2.098884    0.156568
      5         11           0        0.308123   -0.509998    1.807372
      6         11           0       -1.331153   -0.689179   -0.454775
      7         11           0       -4.121955    0.008788    0.051629
 ---------------------------------------------------------------------

 SCF Done:  E(UB3LYP) =  -1136.07779769     A.U. after   26 cycles

 The electronic state is 2-A.
 Alpha  occ. eigenvalues --  -38.46026 -38.44674 -38.44332 -38.44322 -38.43407
 Alpha  occ. eigenvalues --  -38.42739 -38.42710  -2.21807  -2.20740  -2.20586
 Alpha  occ. eigenvalues --   -2.20468  -2.19594  -2.18854  -2.18770  -1.15526
 Alpha  occ. eigenvalues --   -1.15449  -1.15434  -1.14637  -1.14452  -1.14364
 Alpha  occ. eigenvalues --   -1.14338  -1.14260  -1.14217  -1.14113  -1.14096
 Alpha  occ. eigenvalues --   -1.14040  -1.13300  -1.13248  -1.13133  -1.12551
 Alpha  occ. eigenvalues --   -1.12512  -1.12501  -1.12439  -1.12424  -1.12331
 Alpha  occ. eigenvalues --   -0.20968  -0.13845  -0.12026  -0.11700
 Alpha virt. eigenvalues --   -0.07464  -0.03639  -0.03522  -0.03474  -0.02616
 Alpha virt. eigenvalues --   -0.02516  -0.02481  -0.00687  -0.00368  -0.00013
 Alpha virt. eigenvalues --    0.00280   0.00416   0.00452   0.00852   0.01087

  Beta  occ. eigenvalues --  -38.46043 -38.44650 -38.44238 -38.44234 -38.43379
  Beta  occ. eigenvalues --  -38.42720 -38.42693  -2.21839  -2.20701  -2.20419
  Beta  occ. eigenvalues --   -2.20309  -2.19549  -2.18828  -2.18745  -1.15548
  Beta  occ. eigenvalues --   -1.15468  -1.15457  -1.14588  -1.14370  -1.14312
  Beta  occ. eigenvalues --   -1.14263  -1.14158  -1.14096  -1.13999  -1.13996
  Beta  occ. eigenvalues --   -1.13921  -1.13279  -1.13151  -1.13110  -1.12541
  Beta  occ. eigenvalues --   -1.12498  -1.12440  -1.12408  -1.12357  -1.12317
  Beta  occ. eigenvalues --   -0.20074  -0.13713  -0.11422
  Beta virt. eigenvalues --   -0.07622  -0.07312  -0.03587  -0.03329  -0.02887
  Beta virt. eigenvalues --   -0.02537  -0.01736  -0.01424  -0.00619  -0.00158
  Beta virt. eigenvalues --    0.00050   0.00283   0.00434   0.00636   0.00902

 Mulliken charges and spin densities:
               1          2
     1  Na  -0.583879   0.242662
     2  Na  -0.024856  -0.079465
     3  Na   0.307118   0.148870
     4  Na  -0.231214   0.006762
     5  Na  -0.317952   0.519632
     6  Na   0.464991   0.195555
     7  Na   0.385791  -0.034016
 Sum of Mulliken charges =  -0.00000   1.00000

 Dipole moment (field-independent basis, Debye):
    X=             -1.0392    Y=              0.3502    Z=              0.4574  Tot=              1.1881
 Quadrupole moment (field-independent basis, Debye-Ang):
   XX=            -44.8608   YY=            -76.4584   ZZ=            -69.5489
   XY=             -1.2950   XZ=             -0.3893   YZ=              1.4433

 Normal termination of Gaussian 16 at Mon Nov 13 19:02:19 2023.
