 Gaussian 16, Revision B.01,
 Gaussian 16:  ES64L-G16RevB.01 20-Dec-2017

 -------------------------
 #P B3LYP/6-311+g(d) force
 -------------------------

 ------------------------------
 Gaussian input prepared by ASE
 ------------------------------
 Symbolic Z-matrix:
 Charge =  0 Multiplicity = 2

                         Standard orientation:
 ---------------------------------------------------------------------
 Center     Atomic      Atomic             Coordinates (Angstroms)
 Number     Number       Type             X           Y           Z
 ---------------------------------------------------------------------
      1         11           0       -1.731636    0.182738   -1.358870
      2         11           0       -0.406472   -2.485051   -1.048390
      3         11           0       -3.327511    1.102156    1.010344
      4         11           0       -1.083756   -0.851560    1.374186
      5         11           0        1.811578    2.947879   -0.478613
      6         11           0        1.129313    0.022441   -0.455781
      7         11           0        3.608484   -0.918604    0.957124
 ---------------------------------------------------------------------

 SCF Done:  E(UB3LYP) =  -1136.09656644     A.U. after   27 cycles

 The electronic state is 2-A.
 Alpha  occ. eigenvalues --  -38.45231 -38.44458 -38.44078 -38.44064 -38.43715
 Alpha  occ. eigenvalues --  -38.43071 -38.42643  -2.21036  -2.20530  -2.20153
 Alpha  occ. eigenvalues --   -2.19880  -2.19618  -2.19070  -2.18831  -1.14724
 Alpha  occ. eigenvalues --   -1.14675  -1.14634  -1.14311  -1.14190  -1.14168
 Alpha  occ. eigenvalues --   -1.13888  -1.13811  -1.13759  -1.13592  -1.13525
 Alpha  occ. eigenvalues --   -1.13491  -1.13283  -1.13266  -1.13221  -1.12808
 Alpha  occ. eigenvalues --   -1.12717  -1.12690  -1.12545  -1.12508  -1.12394
 Alpha  occ. eigenvalues --   -0.19191  -0.13768  -0.11819  -0.11156
 Alpha virt. eigenvalues --   -0.06535  -0.05180  -0.03982  -0.03228  -0.02409
 Alpha virt. eigenvalues --   -0.02337  -0.01929  -0.01100  -0.00599  -0.00094
 Alpha virt. eigenvalues --    0.00167   0.00249   0.00369   0.00719   0.00915

  Beta  occ. eigenvalues --  -38.45174 -38.44425 -38.44052 -38.44026 -38.43694
  Beta  occ. eigenvalues --  -38.43058 -38.42615  -2.20930  -2.20469  -2.20088
  Beta  occ. eigenvalues --   -2.19834  -2.19580  -2.19050  -2.18792  -1.14655
  Beta  occ. eigenvalues --   -1.14600  -1.14562  -1.14266  -1.14145  -1.14124
  Beta  occ. eigenvalues --   -1.13834  -1.13752  -1.13711  -1.13559  -1.13492
  Beta  occ. eigenvalues --   -1.13456  -1.13253  -1.13234  -1.13195  -1.12793
  Beta  occ. eigenvalues --   -1.12705  -1.12653  -1.12523  -1.12407  -1.12374
  Beta  occ. eigenvalues --   -0.18576  -0.13310  -0.11523
  Beta virt. eigenvalues --   -0.07518  -0.06072  -0.04942  -0.03753  -0.02936
  Beta virt. eigenvalues --   -0.01989  -0.01857  -0.01419  -0.00955  -0.00268
  Beta virt. eigenvalues --    0.00009   0.00234   0.00283   0.00516   0.00776

 Mulliken charges and spin densities:
               1          2
     1  Na   0.977681   0.058708
     2  Na   0.352999  -0.025419
     3  Na   0.107143   0.044261
     4  Na  -0.440669   0.247598
     5  Na   0.846698   0.143182
     6  Na  -2.023177   0.290206
     7  Na   0.179325   0.241464
 Sum of Mulliken charges =  -0.00000   1.00000

 Dipole moment (field-independent basis, Debye):
    X=              0.2843    Y=             -0.2770    Z=              0.2022  Tot=              0.4454
 Quadrupole moment (field-independent basis, Debye-Ang):
   XX=            -57.8747   YY=            -65.4717   ZZ=            -69.0125
   XY=             -1.8072   XZ=              3.3574   YZ=             -0.2364

 Normal termination of Gaussian 16 at Mon Nov 13 18:51:04 2023.
