 Gaussian 16, Revision B.01,
 Gaussian 16:  ES64L-G16RevB.01 20-Dec-2017

 -------------------------
 #P B3LYP/6-311+g(d) force
 -------------------------

 ------------------------------
 Gaussian input prepared by ASE
 ------------------------------
 Symbolic Z-matrix:
 Charge =  0 Multiplicity = 2

                         Standard orientation:
 ---------------------------------------------------------------------
 Center     Atomic      Atomic             Coordinates (Angstroms)
 Number     Number       Type             X           Y           Z
 ---------------------------------------------------------------------
      1         11           0       -0.011922    1.418156    1.573603
      2         11           0       -1.365500   -1.246938    1.572297
      3         11           0        4.006404   -0.467752    0.004440
      4         11           0        1.030383   -0.782215   -0.180581
      5         11           0       -1.563310   -1.730994   -1.369299
      6         11           0        0.263181    1.874975   -1.366105
      7         11           0       -2.359236    0.934769   -0.234357
 ---------------------------------------------------------------------

 SCF Done:  E(UB3LYP) =  -1136.09867116     A.U. after   23 cycles

 The electronic state is 2-A.
 Alpha  occ. eigenvalues --  -38.44844 -38.43930 -38.43860 -38.43647 -38.43593
 Alpha  occ. eigenvalues --  -38.43551 -38.42776  -2.20627  -2.20032  -2.19955
 Alpha  occ. eigenvalues --   -2.19739  -2.19592  -2.19557  -2.18944  -1.14328
 Alpha  occ. eigenvalues --   -1.14277  -1.14260  -1.13878  -1.13757  -1.13730
 Alpha  occ. eigenvalues --   -1.13692  -1.13613  -1.13517  -1.13487  -1.13374
 Alpha  occ. eigenvalues --   -1.13310  -1.13287  -1.13251  -1.13188  -1.13181
 Alpha  occ. eigenvalues --   -1.13156  -1.13136  -1.12635  -1.12593  -1.12536
 Alpha  occ. eigenvalues --   -0.20517  -0.13179  -0.12415  -0.11905
 Alpha virt. eigenvalues --   -0.06578  -0.04005  -0.03677  -0.03270  -0.02964
 Alpha virt. eigenvalues --   -0.02824  -0.02022  -0.00504  -0.00438   0.00147
 Alpha virt. eigenvalues --    0.00353   0.00419   0.00542   0.00862   0.01079

  Beta  occ. eigenvalues --  -38.44859 -38.43903 -38.43796 -38.43587 -38.43553
  Beta  occ. eigenvalues --  -38.43511 -38.42751  -2.20656  -2.19991  -2.19843
  Beta  occ. eigenvalues --   -2.19636  -2.19519  -2.19484  -2.18906  -1.14347
  Beta  occ. eigenvalues --   -1.14295  -1.14280  -1.13833  -1.13707  -1.13667
  Beta  occ. eigenvalues --   -1.13611  -1.13519  -1.13453  -1.13434  -1.13284
  Beta  occ. eigenvalues --   -1.13243  -1.13224  -1.13197  -1.13131  -1.13128
  Beta  occ. eigenvalues --   -1.13092  -1.13067  -1.12596  -1.12530  -1.12516
  Beta  occ. eigenvalues --   -0.19548  -0.13099  -0.11758
  Beta virt. eigenvalues --   -0.07903  -0.06418  -0.03854  -0.03116  -0.03083
  Beta virt. eigenvalues --   -0.02307  -0.02092  -0.01655  -0.00456  -0.00162
  Beta virt. eigenvalues --    0.00174   0.00368   0.00539   0.00627   0.00895

 Mulliken charges and spin densities:
               1          2
     1  Na   0.195623   0.211713
     2  Na  -0.170933   0.022691
     3  Na   0.533691  -0.226612
     4  Na  -0.936640   0.271778
     5  Na   0.120055   0.267245
     6  Na  -0.323611   0.213829
     7  Na   0.581815   0.239354
 Sum of Mulliken charges =  -0.00000   1.00000

 Dipole moment (field-independent basis, Debye):
    X=              0.3482    Y=              0.3341    Z=             -0.0995  Tot=              0.4927
 Quadrupole moment (field-independent basis, Debye-Ang):
   XX=            -54.5448   YY=            -74.0643   ZZ=            -64.5487
   XY=              1.1942   XZ=              0.8189   YZ=             -0.4453

 Normal termination of Gaussian 16 at Mon Nov 13 19:50:26 2023.
