 Gaussian 16, Revision B.01,
 Gaussian 16:  ES64L-G16RevB.01 20-Dec-2017

 -------------------------
 #P B3LYP/6-311+g(d) force
 -------------------------

 ------------------------------
 Gaussian input prepared by ASE
 ------------------------------
 Symbolic Z-matrix:
 Charge =  0 Multiplicity = 2

                         Standard orientation:
 ---------------------------------------------------------------------
 Center     Atomic      Atomic             Coordinates (Angstroms)
 Number     Number       Type             X           Y           Z
 ---------------------------------------------------------------------
      1         11           0        0.610362   -2.679083   -0.701454
      2         11           0       -2.209069   -2.332682    0.260483
      3         11           0       -3.830481    0.177993    0.485481
      4         11           0       -1.916850    2.460888    0.133656
      5         11           0        0.972186    2.591347   -0.656427
      6         11           0        2.198174   -0.138591   -0.890261
      7         11           0        4.175679   -0.079872    1.368522
 ---------------------------------------------------------------------

 SCF Done:  E(UB3LYP) =  -1136.10522273     A.U. after   19 cycles

 The electronic state is 2-A.
 Alpha  occ. eigenvalues --  -38.45006 -38.44332 -38.44316 -38.44269 -38.44209
 Alpha  occ. eigenvalues --  -38.44207 -38.44084  -2.20850  -2.20268  -2.20196
 Alpha  occ. eigenvalues --   -2.20151  -2.20100  -2.20070  -2.19965  -1.14537
 Alpha  occ. eigenvalues --   -1.14467  -1.14458  -1.14070  -1.14009  -1.13963
 Alpha  occ. eigenvalues --   -1.13950  -1.13916  -1.13884  -1.13843  -1.13837
 Alpha  occ. eigenvalues --   -1.13776  -1.13750  -1.13727  -1.13698  -1.13693
 Alpha  occ. eigenvalues --   -1.13669  -1.13617  -1.13593  -1.13581  -1.13564
 Alpha  occ. eigenvalues --   -0.17367  -0.14632  -0.13166  -0.11053
 Alpha virt. eigenvalues --   -0.06420  -0.05984  -0.04305  -0.03683  -0.02598
 Alpha virt. eigenvalues --   -0.02270  -0.01852  -0.01600  -0.00915  -0.00805
 Alpha virt. eigenvalues --   -0.00167   0.00196   0.00291   0.00462   0.00847

  Beta  occ. eigenvalues --  -38.44891 -38.44330 -38.44311 -38.44236 -38.44207
  Beta  occ. eigenvalues --  -38.44163 -38.44050  -2.20637  -2.20267  -2.20199
  Beta  occ. eigenvalues --   -2.20094  -2.20073  -2.20015  -2.19903  -1.14398
  Beta  occ. eigenvalues --   -1.14321  -1.14313  -1.14063  -1.13973  -1.13934
  Beta  occ. eigenvalues --   -1.13915  -1.13881  -1.13876  -1.13848  -1.13810
  Beta  occ. eigenvalues --   -1.13740  -1.13723  -1.13709  -1.13663  -1.13653
  Beta  occ. eigenvalues --   -1.13643  -1.13578  -1.13553  -1.13541  -1.13524
  Beta  occ. eigenvalues --   -0.16887  -0.13898  -0.12763
  Beta virt. eigenvalues --   -0.07642  -0.06375  -0.05408  -0.04065  -0.03296
  Beta virt. eigenvalues --   -0.02119  -0.01932  -0.01482  -0.01288  -0.00795
  Beta virt. eigenvalues --   -0.00713   0.00150   0.00394   0.00505   0.00578

 Mulliken charges and spin densities:
               1          2
     1  Na   0.453025   0.058460
     2  Na  -0.347910   0.057664
     3  Na   0.320034   0.232901
     4  Na  -0.274854   0.062460
     5  Na   0.584403   0.036855
     6  Na  -1.232131   0.040926
     7  Na   0.497432   0.510734
 Sum of Mulliken charges =  -0.00000   1.00000

 Dipole moment (field-independent basis, Debye):
    X=              0.2637    Y=              0.0307    Z=              0.4133  Tot=              0.4912
 Quadrupole moment (field-independent basis, Debye-Ang):
   XX=            -64.4426   YY=            -67.6878   ZZ=            -69.7575
   XY=              0.4663   XZ=              0.1961   YZ=             -0.1943

 Normal termination of Gaussian 16 at Mon Nov 13 14:49:31 2023.
