 Gaussian 16, Revision B.01,
 Gaussian 16:  ES64L-G16RevB.01 20-Dec-2017

 -------------------------
 #P B3LYP/6-311+g(d) force
 -------------------------

 ------------------------------
 Gaussian input prepared by ASE
 ------------------------------
 Symbolic Z-matrix:
 Charge =  0 Multiplicity = 2

                         Standard orientation:
 ---------------------------------------------------------------------
 Center     Atomic      Atomic             Coordinates (Angstroms)
 Number     Number       Type             X           Y           Z
 ---------------------------------------------------------------------
      1         11           0        2.573828    2.022143    0.446871
      2         11           0       -1.221647    2.463365   -1.138111
      3         11           0       -4.343171   -0.186427    1.072786
      4         11           0       -2.153201   -1.571488   -0.427815
      5         11           0        0.314812    0.110015   -0.071642
      6         11           0        2.768339   -0.812830    1.381467
      7         11           0        2.061039   -2.024778   -1.263554
 ---------------------------------------------------------------------

 SCF Done:  E(UB3LYP) =  -1136.10442360     A.U. after   22 cycles

 The electronic state is 2-A.
 Alpha  occ. eigenvalues --  -38.44461 -38.44257 -38.44068 -38.43936 -38.43903
 Alpha  occ. eigenvalues --  -38.43770 -38.43037  -2.20296  -2.20255  -2.19971
 Alpha  occ. eigenvalues --   -2.19817  -2.19725  -2.19675  -2.19241  -1.14008
 Alpha  occ. eigenvalues --   -1.13999  -1.13941  -1.13926  -1.13906  -1.13901
 Alpha  occ. eigenvalues --   -1.13676  -1.13588  -1.13574  -1.13565  -1.13468
 Alpha  occ. eigenvalues --   -1.13458  -1.13424  -1.13401  -1.13374  -1.13319
 Alpha  occ. eigenvalues --   -1.13316  -1.13276  -1.12921  -1.12887  -1.12821
 Alpha  occ. eigenvalues --   -0.18376  -0.14431  -0.11772  -0.10888
 Alpha virt. eigenvalues --   -0.06067  -0.05330  -0.04397  -0.03478  -0.02598
 Alpha virt. eigenvalues --   -0.02299  -0.01601  -0.01384  -0.00786  -0.00175
 Alpha virt. eigenvalues --    0.00096   0.00202   0.00494   0.00626   0.00681

  Beta  occ. eigenvalues --  -38.44383 -38.44221 -38.44045 -38.43933 -38.43869
  Beta  occ. eigenvalues --  -38.43746 -38.43009  -2.20192  -2.20150  -2.19928
  Beta  occ. eigenvalues --   -2.19820  -2.19662  -2.19636  -2.19195  -1.13974
  Beta  occ. eigenvalues --   -1.13906  -1.13891  -1.13846  -1.13826  -1.13806
  Beta  occ. eigenvalues --   -1.13639  -1.13562  -1.13558  -1.13533  -1.13456
  Beta  occ. eigenvalues --   -1.13410  -1.13403  -1.13379  -1.13328  -1.13289
  Beta  occ. eigenvalues --   -1.13281  -1.13226  -1.12879  -1.12844  -1.12786
  Beta  occ. eigenvalues --   -0.17860  -0.13719  -0.11454
  Beta virt. eigenvalues --   -0.07378  -0.05789  -0.05144  -0.03891  -0.03322
  Beta virt. eigenvalues --   -0.02316  -0.01836  -0.01192  -0.01066  -0.00536
  Beta virt. eigenvalues --   -0.00023   0.00205   0.00309   0.00613   0.00731

 Mulliken charges and spin densities:
               1          2
     1  Na   0.703249   0.189613
     2  Na   0.528632  -0.049970
     3  Na   0.288414   0.357871
     4  Na  -0.092182   0.056803
     5  Na  -3.082832   0.196853
     6  Na   0.968013   0.214662
     7  Na   0.686706   0.034168
 Sum of Mulliken charges =  -0.00000   1.00000

 Dipole moment (field-independent basis, Debye):
    X=              0.3245    Y=              0.2675    Z=             -0.2536  Tot=              0.4911
 Quadrupole moment (field-independent basis, Debye-Ang):
   XX=            -59.7681   YY=            -69.4034   ZZ=            -66.3247
   XY=             -5.3989   XZ=             -1.1005   YZ=             -0.0843

 Normal termination of Gaussian 16 at Mon Nov 13 17:26:36 2023.
