 Gaussian 16, Revision B.01,
 Gaussian 16:  ES64L-G16RevB.01 20-Dec-2017

 -------------------------
 #P B3LYP/6-311+g(d) force
 -------------------------

 ------------------------------
 Gaussian input prepared by ASE
 ------------------------------
 Symbolic Z-matrix:
 Charge =  0 Multiplicity = 2

                         Standard orientation:
 ---------------------------------------------------------------------
 Center     Atomic      Atomic             Coordinates (Angstroms)
 Number     Number       Type             X           Y           Z
 ---------------------------------------------------------------------
      1         11           0        1.841305   -0.023001    1.674154
      2         11           0       -2.617202   -0.480874   -0.137818
      3         11           0       -0.515667   -1.877679    1.479582
      4         11           0       -0.322994   -1.834999   -1.513605
      5         11           0        2.293918   -0.383514   -1.267988
      6         11           0        1.151506    2.187759   -0.231224
      7         11           0       -1.830866    2.412308   -0.003101
 ---------------------------------------------------------------------

 SCF Done:  E(UB3LYP) =  -1136.11087777     A.U. after   19 cycles

 The electronic state is 2-A.
 Alpha  occ. eigenvalues --  -38.44329 -38.44185 -38.44113 -38.44095 -38.43878
 Alpha  occ. eigenvalues --  -38.43660 -38.43496  -2.20326  -2.20178  -2.20111
 Alpha  occ. eigenvalues --   -2.20085  -2.19845  -2.19627  -2.19372  -1.14078
 Alpha  occ. eigenvalues --   -1.14057  -1.13976  -1.13942  -1.13923  -1.13853
 Alpha  occ. eigenvalues --   -1.13783  -1.13755  -1.13749  -1.13722  -1.13658
 Alpha  occ. eigenvalues --   -1.13616  -1.13517  -1.13480  -1.13456  -1.13331
 Alpha  occ. eigenvalues --   -1.13288  -1.13273  -1.13016  -1.13000  -1.12993
 Alpha  occ. eigenvalues --   -0.19588  -0.13651  -0.12791  -0.12056
 Alpha virt. eigenvalues --   -0.05261  -0.05084  -0.04446  -0.04265  -0.03185
 Alpha virt. eigenvalues --   -0.03095  -0.00800  -0.00484  -0.00262   0.00284
 Alpha virt. eigenvalues --    0.00362   0.00417   0.00843   0.00864   0.00913

  Beta  occ. eigenvalues --  -38.44267 -38.44140 -38.44060 -38.44043 -38.43874
  Beta  occ. eigenvalues --  -38.43653 -38.43501  -2.20215  -2.20099  -2.20017
  Beta  occ. eigenvalues --   -2.19991  -2.19838  -2.19616  -2.19382  -1.14014
  Beta  occ. eigenvalues --   -1.13962  -1.13900  -1.13873  -1.13862  -1.13796
  Beta  occ. eigenvalues --   -1.13723  -1.13695  -1.13682  -1.13645  -1.13592
  Beta  occ. eigenvalues --   -1.13544  -1.13515  -1.13446  -1.13443  -1.13330
  Beta  occ. eigenvalues --   -1.13277  -1.13246  -1.13023  -1.13003  -1.12996
  Beta  occ. eigenvalues --   -0.18870  -0.13543  -0.12596
  Beta virt. eigenvalues --   -0.07807  -0.05123  -0.05018  -0.04278  -0.03541
  Beta virt. eigenvalues --   -0.02477  -0.02073  -0.00770  -0.00453   0.00020
  Beta virt. eigenvalues --    0.00304   0.00356   0.00495   0.00865   0.00932

 Mulliken charges and spin densities:
               1          2
     1  Na   0.146376   0.269175
     2  Na   0.074954   0.190306
     3  Na  -0.054643   0.130857
     4  Na  -0.129657   0.340425
     5  Na   0.160247  -0.014754
     6  Na  -0.269438   0.284388
     7  Na   0.072161  -0.200397
 Sum of Mulliken charges =  -0.00000   1.00000

 Dipole moment (field-independent basis, Debye):
    X=              0.1964    Y=             -0.2956    Z=              0.0148  Tot=              0.3552
 Quadrupole moment (field-independent basis, Debye-Ang):
   XX=            -63.7671   YY=            -68.9837   ZZ=            -67.5309
   XY=              0.9770   XZ=             -0.4694   YZ=              0.1732

 Normal termination of Gaussian 16 at Mon Nov 13 16:47:22 2023.
