 Gaussian 16, Revision B.01,
 Gaussian 16:  ES64L-G16RevB.01 20-Dec-2017

 -------------------------
 #P B3LYP/6-311+g(d) force
 -------------------------

 ------------------------------
 Gaussian input prepared by ASE
 ------------------------------
 Symbolic Z-matrix:
 Charge =  0 Multiplicity = 2

                         Standard orientation:
 ---------------------------------------------------------------------
 Center     Atomic      Atomic             Coordinates (Angstroms)
 Number     Number       Type             X           Y           Z
 ---------------------------------------------------------------------
      1         11           0        0.009097    0.004108   -1.708912
      2         11           0       -2.006102   -1.865861   -0.490312
      3         11           0       -1.942527    1.920983   -0.465154
      4         11           0       -1.508901    0.004885    1.795918
      5         11           0        2.009698    1.870034   -0.472322
      6         11           0        1.490349   -0.013218    1.800981
      7         11           0        1.948386   -1.920932   -0.460199
 ---------------------------------------------------------------------

 SCF Done:  E(UB3LYP) =  -1136.11331797     A.U. after   20 cycles

 The electronic state is 2-A.
 Alpha  occ. eigenvalues --  -38.44363 -38.44361 -38.43795 -38.43557 -38.43547
 Alpha  occ. eigenvalues --  -38.43528 -38.43521  -2.20378  -2.20368  -2.19935
 Alpha  occ. eigenvalues --   -2.19474  -2.19464  -2.19443  -2.19436  -1.14192
 Alpha  occ. eigenvalues --   -1.14053  -1.14026  -1.14020  -1.13993  -1.13923
 Alpha  occ. eigenvalues --   -1.13674  -1.13634  -1.13602  -1.13174  -1.13152
 Alpha  occ. eigenvalues --   -1.13147  -1.13140  -1.13125  -1.13120  -1.13116
 Alpha  occ. eigenvalues --   -1.13097  -1.13047  -1.13035  -1.13013  -1.13006
 Alpha  occ. eigenvalues --   -0.19834  -0.13463  -0.12557  -0.11837
 Alpha virt. eigenvalues --   -0.05009  -0.04836  -0.04457  -0.03841  -0.03134
 Alpha virt. eigenvalues --   -0.03114  -0.01043  -0.00778  -0.00280   0.00414
 Alpha virt. eigenvalues --    0.00596   0.00670   0.00733   0.00885   0.00916

  Beta  occ. eigenvalues --  -38.44293 -38.44291 -38.43717 -38.43549 -38.43539
  Beta  occ. eigenvalues --  -38.43520 -38.43513  -2.20252  -2.20243  -2.19796
  Beta  occ. eigenvalues --   -2.19463  -2.19453  -2.19433  -2.19426  -1.14081
  Beta  occ. eigenvalues --   -1.13970  -1.13943  -1.13939  -1.13913  -1.13827
  Beta  occ. eigenvalues --   -1.13578  -1.13533  -1.13519  -1.13148  -1.13135
  Beta  occ. eigenvalues --   -1.13126  -1.13120  -1.13108  -1.13100  -1.13091
  Beta  occ. eigenvalues --   -1.13068  -1.13043  -1.13032  -1.13009  -1.13003
  Beta  occ. eigenvalues --   -0.19045  -0.13304  -0.11544
  Beta virt. eigenvalues --   -0.08351  -0.05016  -0.04678  -0.03667  -0.03267
  Beta virt. eigenvalues --   -0.02462  -0.02383  -0.01046  -0.00718  -0.00048
  Beta virt. eigenvalues --    0.00442   0.00626   0.00666   0.00760   0.00956

 Mulliken charges and spin densities:
               1          2
     1  Na  -0.356296   0.351956
     2  Na   0.012838  -0.006524
     3  Na  -0.034992  -0.003543
     4  Na   0.194300   0.334403
     5  Na   0.016885  -0.006036
     6  Na   0.195889   0.335107
     7  Na  -0.028625  -0.005364
 Sum of Mulliken charges =  -0.00000   1.00000

 Dipole moment (field-independent basis, Debye):
    X=             -0.0013    Y=             -0.0033    Z=              0.1241  Tot=              0.1242
 Quadrupole moment (field-independent basis, Debye-Ang):
   XX=            -61.5551   YY=            -69.5692   ZZ=            -65.8040
   XY=              0.0504   XZ=              0.0093   YZ=              0.0666

 Normal termination of Gaussian 16 at Mon Nov 13 18:29:09 2023.
