 Gaussian 16, Revision B.01,
 Gaussian 16:  ES64L-G16RevB.01 20-Dec-2017

 -------------------------
 #P B3LYP/6-311+g(d) force
 -------------------------

 ------------------------------
 Gaussian input prepared by ASE
 ------------------------------
 Symbolic Z-matrix:
 Charge =  0 Multiplicity = 2

                         Standard orientation:
 ---------------------------------------------------------------------
 Center     Atomic      Atomic             Coordinates (Angstroms)
 Number     Number       Type             X           Y           Z
 ---------------------------------------------------------------------
      1         11           0        0.701651    0.374443    1.689141
      2         11           0        0.698726    1.279024   -1.167606
      3         11           0        3.150353   -0.000085   -0.001821
      4         11           0        0.700370   -1.651252   -0.521565
      5         11           0       -1.751933   -0.375056   -1.690261
      6         11           0       -1.748127   -1.278346    1.170257
      7         11           0       -1.751040    1.651272    0.521855
 ---------------------------------------------------------------------

 SCF Done:  E(UB3LYP) =  -1136.09514183     A.U. after   62 cycles

 The electronic state is 2-A.
 Alpha  occ. eigenvalues --  -38.44415 -38.44302 -38.44087 -38.43741 -38.43435
 Alpha  occ. eigenvalues --  -38.42896 -38.42511  -2.20395  -2.20391  -2.20270
 Alpha  occ. eigenvalues --   -2.19830  -2.19611  -2.18975  -2.18674  -1.14188
 Alpha  occ. eigenvalues --   -1.14152  -1.14086  -1.14075  -1.14033  -1.14016
 Alpha  occ. eigenvalues --   -1.13994  -1.13892  -1.13852  -1.13516  -1.13465
 Alpha  occ. eigenvalues --   -1.13434  -1.13330  -1.13232  -1.13228  -1.12658
 Alpha  occ. eigenvalues --   -1.12623  -1.12577  -1.12384  -1.12334  -1.12264
 Alpha  occ. eigenvalues --   -0.21250  -0.14244  -0.12966  -0.11548
 Alpha virt. eigenvalues --   -0.05828  -0.04395  -0.03853  -0.03718  -0.02878
 Alpha virt. eigenvalues --   -0.02633  -0.01494  -0.00503  -0.00230   0.00287
 Alpha virt. eigenvalues --    0.00605   0.00745   0.00972   0.01009   0.01054

  Beta  occ. eigenvalues --  -38.44414 -38.44239 -38.44014 -38.43698 -38.43385
  Beta  occ. eigenvalues --  -38.42882 -38.42490  -2.20390  -2.20283  -2.20141
  Beta  occ. eigenvalues --   -2.19754  -2.19523  -2.18955  -2.18643  -1.14168
  Beta  occ. eigenvalues --   -1.14076  -1.14057  -1.14018  -1.13986  -1.13955
  Beta  occ. eigenvalues --   -1.13914  -1.13795  -1.13771  -1.13463  -1.13414
  Beta  occ. eigenvalues --   -1.13353  -1.13278  -1.13176  -1.13129  -1.12647
  Beta  occ. eigenvalues --   -1.12580  -1.12548  -1.12371  -1.12255  -1.12245
  Beta  occ. eigenvalues --   -0.20355  -0.14038  -0.11303
  Beta virt. eigenvalues --   -0.08488  -0.05713  -0.03802  -0.03672  -0.03148
  Beta virt. eigenvalues --   -0.02120  -0.01966  -0.01435  -0.00219  -0.00169
  Beta virt. eigenvalues --    0.00325   0.00674   0.00961   0.00966   0.01078

 Mulliken charges and spin densities:
               1          2
     1  Na  -0.336774   0.251554
     2  Na  -0.366421   0.347060
     3  Na   0.861672  -0.034534
     4  Na  -0.623123   0.232523
     5  Na   0.227261   0.094022
     6  Na   0.199429   0.107771
     7  Na   0.037957   0.001603
 Sum of Mulliken charges =  -0.00000   1.00000

 Dipole moment (field-independent basis, Debye):
    X=              0.3779    Y=             -0.0048    Z=             -0.0070  Tot=              0.3780
 Quadrupole moment (field-independent basis, Debye-Ang):
   XX=            -54.3903   YY=            -78.0131   ZZ=            -63.4215
   XY=              0.1275   XZ=              0.0376   YZ=             -1.3979

 Normal termination of Gaussian 16 at Mon Nov 13 20:03:20 2023.
