 Gaussian 16, Revision B.01,
 Gaussian 16:  ES64L-G16RevB.01 20-Dec-2017

 -------------------------
 #P B3LYP/6-311+g(d) force
 -------------------------

 ------------------------------
 Gaussian input prepared by ASE
 ------------------------------
 Symbolic Z-matrix:
 Charge =  0 Multiplicity = 2

                         Standard orientation:
 ---------------------------------------------------------------------
 Center     Atomic      Atomic             Coordinates (Angstroms)
 Number     Number       Type             X           Y           Z
 ---------------------------------------------------------------------
      1         11           0       -0.123431   -1.104365   -0.997459
      2         11           0        0.800328   -1.513135    1.825947
      3         11           0        2.797770   -0.980194   -0.347969
      4         11           0        1.400043    1.454664   -1.405325
      5         11           0       -0.162970    2.773710    0.794969
      6         11           0       -1.609338    0.184763    1.265145
      7         11           0       -3.102402   -0.815443   -1.135308
 ---------------------------------------------------------------------

 SCF Done:  E(UB3LYP) =  -1136.10509408     A.U. after   25 cycles

 The electronic state is 2-A.
 Alpha  occ. eigenvalues --  -38.44493 -38.44180 -38.43959 -38.43620 -38.43556
 Alpha  occ. eigenvalues --  -38.43542 -38.43241  -2.20392  -2.20170  -2.19940
 Alpha  occ. eigenvalues --   -2.19742  -2.19699  -2.19525  -2.19138  -1.14121
 Alpha  occ. eigenvalues --   -1.14063  -1.13988  -1.13944  -1.13892  -1.13768
 Alpha  occ. eigenvalues --   -1.13708  -1.13580  -1.13548  -1.13510  -1.13433
 Alpha  occ. eigenvalues --   -1.13362  -1.13342  -1.13335  -1.13257  -1.13196
 Alpha  occ. eigenvalues --   -1.13154  -1.13138  -1.12798  -1.12762  -1.12750
 Alpha  occ. eigenvalues --   -0.19803  -0.13704  -0.12254  -0.12207
 Alpha virt. eigenvalues --   -0.05605  -0.04477  -0.04236  -0.03763  -0.03086
 Alpha virt. eigenvalues --   -0.03001  -0.01531  -0.00479  -0.00367   0.00302
 Alpha virt. eigenvalues --    0.00560   0.00635   0.00867   0.00933   0.01004

  Beta  occ. eigenvalues --  -38.44453 -38.44111 -38.43953 -38.43579 -38.43515
  Beta  occ. eigenvalues --  -38.43514 -38.43224  -2.20319  -2.20046  -2.19932
  Beta  occ. eigenvalues --   -2.19672  -2.19632  -2.19478  -2.19109  -1.14070
  Beta  occ. eigenvalues --   -1.14007  -1.13939  -1.13872  -1.13815  -1.13679
  Beta  occ. eigenvalues --   -1.13676  -1.13575  -1.13512  -1.13467  -1.13378
  Beta  occ. eigenvalues --   -1.13300  -1.13275  -1.13263  -1.13206  -1.13161
  Beta  occ. eigenvalues --   -1.13111  -1.13110  -1.12768  -1.12745  -1.12727
  Beta  occ. eigenvalues --   -0.19023  -0.13340  -0.12029
  Beta virt. eigenvalues --   -0.08194  -0.05410  -0.04059  -0.03911  -0.03386
  Beta virt. eigenvalues --   -0.02663  -0.02053  -0.01369  -0.00382  -0.00157
  Beta virt. eigenvalues --    0.00347   0.00624   0.00815   0.00897   0.01009

 Mulliken charges and spin densities:
               1          2
     1  Na  -1.977329   0.107179
     2  Na  -0.393504   0.453013
     3  Na   1.841620  -0.094529
     4  Na  -0.008839   0.209319
     5  Na  -0.499311   0.008758
     6  Na   0.675500   0.049639
     7  Na   0.361863   0.266620
 Sum of Mulliken charges =  -0.00000   1.00000

 Dipole moment (field-independent basis, Debye):
    X=             -0.0721    Y=             -0.1832    Z=             -0.0280  Tot=              0.1989
 Quadrupole moment (field-independent basis, Debye-Ang):
   XX=            -57.9163   YY=            -72.6096   ZZ=            -65.4165
   XY=             -0.7366   XZ=              1.5635   YZ=              0.6961

 Normal termination of Gaussian 16 at Mon Nov 13 16:06:10 2023.
