 Gaussian 16, Revision B.01,
 Gaussian 16:  ES64L-G16RevB.01 20-Dec-2017

 -------------------------
 #P B3LYP/6-311+g(d) force
 -------------------------

 ------------------------------
 Gaussian input prepared by ASE
 ------------------------------
 Symbolic Z-matrix:
 Charge =  0 Multiplicity = 2

                         Standard orientation:
 ---------------------------------------------------------------------
 Center     Atomic      Atomic             Coordinates (Angstroms)
 Number     Number       Type             X           Y           Z
 ---------------------------------------------------------------------
      1         11           0        2.899135   -2.280299    0.027319
      2         11           0       -2.735598   -2.419946   -0.034751
      3         11           0       -3.084648    2.530286    0.817997
      4         11           0       -2.204640    0.353128   -1.046779
      5         11           0        0.059506   -1.325434   -0.011439
      6         11           0        2.224103    0.448888    1.071115
      7         11           0        2.842141    2.693377   -0.823462
 ---------------------------------------------------------------------

 SCF Done:  E(UB3LYP) =  -1136.09754897     A.U. after   19 cycles

 The electronic state is 2-A.
 Alpha  occ. eigenvalues --  -38.44397 -38.44320 -38.44025 -38.43997 -38.43819
 Alpha  occ. eigenvalues --  -38.43805 -38.43768  -2.20305  -2.20231  -2.20005
 Alpha  occ. eigenvalues --   -2.19977  -2.19839  -2.19657  -2.19640  -1.14066
 Alpha  occ. eigenvalues --   -1.13989  -1.13965  -1.13919  -1.13907  -1.13844
 Alpha  occ. eigenvalues --   -1.13761  -1.13743  -1.13692  -1.13668  -1.13602
 Alpha  occ. eigenvalues --   -1.13586  -1.13490  -1.13451  -1.13411  -1.13284
 Alpha  occ. eigenvalues --   -1.13277  -1.13273  -1.13266  -1.13263  -1.13250
 Alpha  occ. eigenvalues --   -0.17879  -0.14755  -0.12314  -0.10476
 Alpha virt. eigenvalues --   -0.06125  -0.05708  -0.04565  -0.03008  -0.02915
 Alpha virt. eigenvalues --   -0.02153  -0.02112  -0.01036  -0.00957  -0.00383
 Alpha virt. eigenvalues --   -0.00139  -0.00003   0.00284   0.00356   0.00700

  Beta  occ. eigenvalues --  -38.44360 -38.44280 -38.44018 -38.43991 -38.43767
  Beta  occ. eigenvalues --  -38.43737 -38.43728  -2.20237  -2.20157  -2.20000
  Beta  occ. eigenvalues --   -2.19973  -2.19840  -2.19505  -2.19498  -1.14021
  Beta  occ. eigenvalues --   -1.13946  -1.13921  -1.13871  -1.13862  -1.13793
  Beta  occ. eigenvalues --   -1.13754  -1.13724  -1.13671  -1.13649  -1.13577
  Beta  occ. eigenvalues --   -1.13568  -1.13491  -1.13464  -1.13377  -1.13186
  Beta  occ. eigenvalues --   -1.13180  -1.13175  -1.13167  -1.13166  -1.13157
  Beta  occ. eigenvalues --   -0.17655  -0.14079  -0.11276
  Beta virt. eigenvalues --   -0.07387  -0.05808  -0.05599  -0.04328  -0.02756
  Beta virt. eigenvalues --   -0.02584  -0.01821  -0.01798  -0.00791  -0.00579
  Beta virt. eigenvalues --   -0.00227   0.00071   0.00202   0.00326   0.00367

 Mulliken charges and spin densities:
               1          2
     1  Na   0.238687   0.195284
     2  Na   0.260251   0.198533
     3  Na  -0.103781   0.431159
     4  Na   0.576476  -0.174866
     5  Na  -1.459028   0.095674
     6  Na   0.593967  -0.152336
     7  Na  -0.106572   0.406553
 Sum of Mulliken charges =  -0.00000   1.00000

 Dipole moment (field-independent basis, Debye):
    X=              0.0368    Y=             -1.4345    Z=              0.0067  Tot=              1.4350
 Quadrupole moment (field-independent basis, Debye-Ang):
   XX=            -62.8919   YY=            -70.9195   ZZ=            -66.2977
   XY=              0.7140   XZ=             -2.9727   YZ=             -0.0525

 Normal termination of Gaussian 16 at Mon Nov 13 16:10:11 2023.
