 Gaussian 16, Revision B.01,
 Gaussian 16:  ES64L-G16RevB.01 20-Dec-2017

 -------------------------
 #P B3LYP/6-311+g(d) force
 -------------------------

 ------------------------------
 Gaussian input prepared by ASE
 ------------------------------
 Symbolic Z-matrix:
 Charge =  0 Multiplicity = 2

                         Standard orientation:
 ---------------------------------------------------------------------
 Center     Atomic      Atomic             Coordinates (Angstroms)
 Number     Number       Type             X           Y           Z
 ---------------------------------------------------------------------
      1         11           0       -0.842531   -0.474960    1.436503
      2         11           0       -1.093965    2.425109    0.705376
      3         11           0       -2.768124   -2.207237   -0.071996
      4         11           0       -1.678874    0.289536   -1.324203
      5         11           0        1.756734    2.490806   -0.230695
      6         11           0        1.192760   -0.409671   -0.773331
      7         11           0        3.434000   -2.113582    0.258346
 ---------------------------------------------------------------------

 SCF Done:  E(UB3LYP) =  -1136.10062405     A.U. after   21 cycles

 The electronic state is 2-A.
 Alpha  occ. eigenvalues --  -38.45061 -38.44777 -38.44120 -38.43719 -38.43688
 Alpha  occ. eigenvalues --  -38.43684 -38.42952  -2.20937  -2.20661  -2.19914
 Alpha  occ. eigenvalues --   -2.19819  -2.19774  -2.19680  -2.19029  -1.14642
 Alpha  occ. eigenvalues --   -1.14612  -1.14556  -1.14380  -1.14344  -1.14276
 Alpha  occ. eigenvalues --   -1.13700  -1.13622  -1.13557  -1.13553  -1.13544
 Alpha  occ. eigenvalues --   -1.13471  -1.13452  -1.13425  -1.13315  -1.13304
 Alpha  occ. eigenvalues --   -1.13264  -1.13256  -1.12713  -1.12663  -1.12653
 Alpha  occ. eigenvalues --   -0.19563  -0.13555  -0.12423  -0.10524
 Alpha virt. eigenvalues --   -0.06360  -0.06034  -0.03675  -0.03152  -0.02551
 Alpha virt. eigenvalues --   -0.02120  -0.01966  -0.01460  -0.00302  -0.00034
 Alpha virt. eigenvalues --    0.00186   0.00260   0.00597   0.00641   0.00862

  Beta  occ. eigenvalues --  -38.45058 -38.44771 -38.44124 -38.43659 -38.43654
  Beta  occ. eigenvalues --  -38.43621 -38.42922  -2.20934  -2.20654  -2.19921
  Beta  occ. eigenvalues --   -2.19711  -2.19656  -2.19629  -2.18979  -1.14638
  Beta  occ. eigenvalues --   -1.14607  -1.14541  -1.14377  -1.14314  -1.14269
  Beta  occ. eigenvalues --   -1.13639  -1.13618  -1.13560  -1.13555  -1.13471
  Beta  occ. eigenvalues --   -1.13387  -1.13362  -1.13344  -1.13272  -1.13230
  Beta  occ. eigenvalues --   -1.13211  -1.13175  -1.12686  -1.12629  -1.12572
  Beta  occ. eigenvalues --   -0.18794  -0.13338  -0.12266
  Beta virt. eigenvalues --   -0.06494  -0.06245  -0.05854  -0.03581  -0.02482
  Beta virt. eigenvalues --   -0.02178  -0.01996  -0.01488  -0.00812  -0.00243
  Beta virt. eigenvalues --    0.00134   0.00259   0.00288   0.00639   0.00795

 Mulliken charges and spin densities:
               1          2
     1  Na  -0.893675   0.439162
     2  Na   0.410995   0.215979
     3  Na   0.308222  -0.033940
     4  Na   0.459972   0.191576
     5  Na  -0.097652   0.012979
     6  Na  -0.131573   0.253608
     7  Na  -0.056289  -0.079362
 Sum of Mulliken charges =  -0.00000   1.00000

 Dipole moment (field-independent basis, Debye):
    X=             -0.1320    Y=              0.0116    Z=              0.1558  Tot=              0.2046
 Quadrupole moment (field-independent basis, Debye-Ang):
   XX=            -56.1457   YY=            -58.0431   ZZ=            -76.0854
   XY=              4.8815   XZ=              1.7350   YZ=             -1.3039

 Normal termination of Gaussian 16 at Mon Nov 13 18:44:31 2023.
