 Gaussian 16, Revision B.01,
 Gaussian 16:  ES64L-G16RevB.01 20-Dec-2017

 -------------------------
 #P B3LYP/6-311+g(d) force
 -------------------------

 ------------------------------
 Gaussian input prepared by ASE
 ------------------------------
 Symbolic Z-matrix:
 Charge =  0 Multiplicity = 2

                         Standard orientation:
 ---------------------------------------------------------------------
 Center     Atomic      Atomic             Coordinates (Angstroms)
 Number     Number       Type             X           Y           Z
 ---------------------------------------------------------------------
      1         11           0       -0.131948    0.313939    1.713224
      2         11           0       -0.673937    1.982874   -0.471584
      3         11           0        2.061382    1.419493    0.281459
      4         11           0        2.068151   -1.412868   -0.282388
      5         11           0       -0.664998   -1.984528    0.473055
      6         11           0       -0.130945   -0.313823   -1.712832
      7         11           0       -2.527705   -0.005088   -0.000933
 ---------------------------------------------------------------------

 SCF Done:  E(UB3LYP) =  -1136.06930730     A.U. after   19 cycles

 The electronic state is 2-A.
 Alpha  occ. eigenvalues --  -38.44432 -38.44429 -38.43991 -38.43725 -38.43725
 Alpha  occ. eigenvalues --  -38.43668 -38.43666  -2.20738  -2.20730  -2.20162
 Alpha  occ. eigenvalues --   -2.19951  -2.19935  -2.19759  -2.19729  -1.14691
 Alpha  occ. eigenvalues --   -1.14593  -1.14530  -1.14442  -1.14383  -1.14341
 Alpha  occ. eigenvalues --   -1.14006  -1.13940  -1.13738  -1.13653  -1.13628
 Alpha  occ. eigenvalues --   -1.13575  -1.13548  -1.13494  -1.13479  -1.13453
 Alpha  occ. eigenvalues --   -1.13395  -1.13377  -1.13288  -1.13276  -1.13199
 Alpha  occ. eigenvalues --   -0.21900  -0.13955  -0.12996  -0.12474
 Alpha virt. eigenvalues --   -0.05128  -0.04277  -0.04019  -0.03783  -0.03303
 Alpha virt. eigenvalues --   -0.02934  -0.01009  -0.00439  -0.00095   0.00338
 Alpha virt. eigenvalues --    0.00844   0.00889   0.01079   0.01184   0.01238

  Beta  occ. eigenvalues --  -38.44338 -38.44335 -38.43977 -38.43701 -38.43701
  Beta  occ. eigenvalues --  -38.43658 -38.43656  -2.20571  -2.20562  -2.20143
  Beta  occ. eigenvalues --   -2.19915  -2.19899  -2.19746  -2.19715  -1.14604
  Beta  occ. eigenvalues --   -1.14474  -1.14407  -1.14339  -1.14275  -1.14222
  Beta  occ. eigenvalues --   -1.13991  -1.13911  -1.13670  -1.13635  -1.13600
  Beta  occ. eigenvalues --   -1.13567  -1.13466  -1.13465  -1.13436  -1.13399
  Beta  occ. eigenvalues --   -1.13346  -1.13340  -1.13262  -1.13260  -1.13194
  Beta  occ. eigenvalues --   -0.21092  -0.13568  -0.12643
  Beta virt. eigenvalues --   -0.08218  -0.05162  -0.04253  -0.03969  -0.02799
  Beta virt. eigenvalues --   -0.02387  -0.01818  -0.00942  -0.00408   0.00053
  Beta virt. eigenvalues --    0.00358   0.00823   0.00887   0.01111   0.01162

 Mulliken charges and spin densities:
               1          2
     1  Na  -0.320836   0.422143
     2  Na   0.277445   0.111060
     3  Na   0.040443   0.018123
     4  Na   0.039827   0.017448
     5  Na   0.278994   0.111586
     6  Na  -0.320821   0.422761
     7  Na   0.004947  -0.103122
 Sum of Mulliken charges =  -0.00000   1.00000

 Dipole moment (field-independent basis, Debye):
    X=              0.2505    Y=             -0.0003    Z=             -0.0006  Tot=              0.2505
 Quadrupole moment (field-independent basis, Debye-Ang):
   XX=            -60.5157   YY=            -69.6818   ZZ=            -68.2700
   XY=              0.0014   XZ=             -0.0001   YZ=             -0.5702

 Normal termination of Gaussian 16 at Mon Nov 13 19:54:03 2023.
