 Gaussian 16, Revision B.01,
 Gaussian 16:  ES64L-G16RevB.01 20-Dec-2017

 -------------------------
 #P B3LYP/6-311+g(d) force
 -------------------------

 ------------------------------
 Gaussian input prepared by ASE
 ------------------------------
 Symbolic Z-matrix:
 Charge =  0 Multiplicity = 2

                         Standard orientation:
 ---------------------------------------------------------------------
 Center     Atomic      Atomic             Coordinates (Angstroms)
 Number     Number       Type             X           Y           Z
 ---------------------------------------------------------------------
      1         11           0        0.571450   -0.947418   -1.351954
      2         11           0        0.570312   -0.927950    1.363828
      3         11           0        2.909233   -0.043297    0.000491
      4         11           0        0.672998    1.716304   -0.010395
      5         11           0       -1.496818    0.830965   -1.375628
      6         11           0       -1.497165    0.849605    1.364462
      7         11           0       -1.730010   -1.478209    0.009196
 ---------------------------------------------------------------------

 SCF Done:  E(UB3LYP) =  -1136.03675915     A.U. after   23 cycles

 The electronic state is 2-A.
 Alpha  occ. eigenvalues --  -38.44876 -38.44861 -38.44636 -38.44429 -38.44407
 Alpha  occ. eigenvalues --  -38.43968 -38.43119  -2.21202  -2.21136  -2.20824
 Alpha  occ. eigenvalues --   -2.20743  -2.20676  -2.20238  -2.19413  -1.15319
 Alpha  occ. eigenvalues --   -1.15058  -1.15052  -1.14933  -1.14883  -1.14811
 Alpha  occ. eigenvalues --   -1.14680  -1.14548  -1.14476  -1.14374  -1.14301
 Alpha  occ. eigenvalues --   -1.14290  -1.14238  -1.14209  -1.14137  -1.13822
 Alpha  occ. eigenvalues --   -1.13787  -1.13724  -1.13110  -1.13034  -1.12978
 Alpha  occ. eigenvalues --   -0.22507  -0.14426  -0.13366  -0.12166
 Alpha virt. eigenvalues --   -0.05785  -0.04184  -0.03942  -0.03727  -0.02913
 Alpha virt. eigenvalues --   -0.02849  -0.01205  -0.00353  -0.00173   0.00259
 Alpha virt. eigenvalues --    0.00773   0.01051   0.01062   0.01075   0.01125

  Beta  occ. eigenvalues --  -38.44813 -38.44799 -38.44634 -38.44362 -38.44340
  Beta  occ. eigenvalues --  -38.43949 -38.43097  -2.21093  -2.21026  -2.20722
  Beta  occ. eigenvalues --   -2.20663  -2.20625  -2.20213  -2.19383  -1.15263
  Beta  occ. eigenvalues --   -1.14947  -1.14946  -1.14860  -1.14817  -1.14728
  Beta  occ. eigenvalues --   -1.14629  -1.14469  -1.14414  -1.14341  -1.14240
  Beta  occ. eigenvalues --   -1.14222  -1.14171  -1.14169  -1.14036  -1.13807
  Beta  occ. eigenvalues --   -1.13711  -1.13692  -1.13099  -1.12968  -1.12937
  Beta  occ. eigenvalues --   -0.21609  -0.14182  -0.11911
  Beta virt. eigenvalues --   -0.08716  -0.05701  -0.03739  -0.03408  -0.03373
  Beta virt. eigenvalues --   -0.02156  -0.01970  -0.01148  -0.00167  -0.00084
  Beta virt. eigenvalues --    0.00304   0.00832   0.01114   0.01126   0.01133

 Mulliken charges and spin densities:
               1          2
     1  Na  -0.419874   0.330308
     2  Na  -0.416068   0.324072
     3  Na   1.002782  -0.074245
     4  Na  -0.879852   0.268044
     5  Na   0.366289   0.125048
     6  Na   0.361956   0.126817
     7  Na  -0.015233  -0.100044
 Sum of Mulliken charges =  -0.00000   1.00000

 Dipole moment (field-independent basis, Debye):
    X=              0.4669    Y=              0.1013    Z=             -0.0021  Tot=              0.4777
 Quadrupole moment (field-independent basis, Debye-Ang):
   XX=            -57.5305   YY=            -76.6824   ZZ=            -64.3266
   XY=              0.3019   XZ=             -0.0072   YZ=              0.0049

 Normal termination of Gaussian 16 at Mon Nov 13 20:31:16 2023.
