 Gaussian 16, Revision B.01,
 Gaussian 16:  ES64L-G16RevB.01 20-Dec-2017

 -------------------------
 #P B3LYP/6-311+g(d) force
 -------------------------

 ------------------------------
 Gaussian input prepared by ASE
 ------------------------------
 Symbolic Z-matrix:
 Charge =  0 Multiplicity = 2

                         Standard orientation:
 ---------------------------------------------------------------------
 Center     Atomic      Atomic             Coordinates (Angstroms)
 Number     Number       Type             X           Y           Z
 ---------------------------------------------------------------------
      1         11           0        2.504529   -0.119843    1.603366
      2         11           0        2.697391    0.181841   -1.362032
      3         11           0       -0.086007    3.019630   -0.147475
      4         11           0        0.066044   -2.989735   -0.289647
      5         11           0        0.003392    0.010170   -0.048761
      6         11           0       -2.692971   -0.061821   -1.367813
      7         11           0       -2.492378   -0.040243    1.612362
 ---------------------------------------------------------------------

 SCF Done:  E(UB3LYP) =  -1136.10818625     A.U. after   21 cycles

 The electronic state is 2-A.
 Alpha  occ. eigenvalues --  -38.44469 -38.44469 -38.44339 -38.44338 -38.43517
 Alpha  occ. eigenvalues --  -38.43495 -38.41968  -2.20363  -2.20362  -2.20238
 Alpha  occ. eigenvalues --   -2.20234  -2.19327  -2.19301  -2.18301  -1.14158
 Alpha  occ. eigenvalues --   -1.14145  -1.14060  -1.14056  -1.13939  -1.13938
 Alpha  occ. eigenvalues --   -1.13932  -1.13930  -1.13833  -1.13832  -1.13812
 Alpha  occ. eigenvalues --   -1.13810  -1.13067  -1.13029  -1.12979  -1.12955
 Alpha  occ. eigenvalues --   -1.12933  -1.12910  -1.12014  -1.11997  -1.11913
 Alpha  occ. eigenvalues --   -0.18576  -0.13659  -0.11453  -0.10374
 Alpha virt. eigenvalues --   -0.06071  -0.05072  -0.04355  -0.03538  -0.02125
 Alpha virt. eigenvalues --   -0.02000  -0.01704  -0.01089  -0.00859   0.00235
 Alpha virt. eigenvalues --    0.00239   0.00290   0.00406   0.00602   0.00818

  Beta  occ. eigenvalues --  -38.44447 -38.44447 -38.44299 -38.44298 -38.43512
  Beta  occ. eigenvalues --  -38.43492 -38.41931  -2.20323  -2.20322  -2.20165
  Beta  occ. eigenvalues --   -2.20160  -2.19318  -2.19299  -2.18248  -1.14128
  Beta  occ. eigenvalues --   -1.14114  -1.14018  -1.14015  -1.13911  -1.13910
  Beta  occ. eigenvalues --   -1.13878  -1.13877  -1.13781  -1.13780  -1.13762
  Beta  occ. eigenvalues --   -1.13760  -1.13063  -1.13028  -1.12955  -1.12936
  Beta  occ. eigenvalues --   -1.12930  -1.12910  -1.11975  -1.11888  -1.11868
  Beta  occ. eigenvalues --   -0.17842  -0.13474  -0.11248
  Beta virt. eigenvalues --   -0.06692  -0.06008  -0.04227  -0.04206  -0.03464
  Beta virt. eigenvalues --   -0.01644  -0.01559  -0.01333  -0.01019  -0.00298
  Beta virt. eigenvalues --    0.00250   0.00312   0.00397   0.00493   0.00812

 Mulliken charges and spin densities:
               1          2
     1  Na   0.659897  -0.297703
     2  Na   0.448932  -0.074687
     3  Na   1.018873  -0.012635
     4  Na   1.040210   0.041911
     5  Na  -4.280218   1.703770
     6  Na   0.444657  -0.074900
     7  Na   0.667650  -0.285755
 Sum of Mulliken charges =  -0.00000   1.00000

 Dipole moment (field-independent basis, Debye):
    X=              0.0054    Y=             -0.0186    Z=             -0.0827  Tot=              0.0849
 Quadrupole moment (field-independent basis, Debye-Ang):
   XX=            -54.4475   YY=            -68.1506   ZZ=            -66.5549
   XY=             -0.0092   XZ=              0.0104   YZ=             -0.0351

 Normal termination of Gaussian 16 at Mon Nov 13 20:34:30 2023.
