 Gaussian 16, Revision B.01,
 Gaussian 16:  ES64L-G16RevB.01 20-Dec-2017

 -------------------------
 #P B3LYP/6-311+g(d) force
 -------------------------

 ------------------------------
 Gaussian input prepared by ASE
 ------------------------------
 Symbolic Z-matrix:
 Charge =  0 Multiplicity = 2

                         Standard orientation:
 ---------------------------------------------------------------------
 Center     Atomic      Atomic             Coordinates (Angstroms)
 Number     Number       Type             X           Y           Z
 ---------------------------------------------------------------------
      1         11           0        0.839486    1.327713    0.194856
      2         11           0       -1.846418    1.449785   -0.108410
      3         11           0        3.368178    0.009403   -0.030619
      4         11           0        0.881286   -1.395178    0.137831
      5         11           0       -0.353285   -0.020465   -1.877025
      6         11           0       -0.778647   -0.106019    1.882728
      7         11           0       -2.110598   -1.265239   -0.199360
 ---------------------------------------------------------------------

 SCF Done:  E(UB3LYP) =  -1136.03662410     A.U. after   37 cycles

 The electronic state is 2-A.
 Alpha  occ. eigenvalues --  -38.45420 -38.45409 -38.45386 -38.44034 -38.43847
 Alpha  occ. eigenvalues --  -38.43508 -38.43372  -2.21702  -2.21679  -2.21343
 Alpha  occ. eigenvalues --   -2.20265  -2.20120  -2.19887  -2.19688  -1.15612
 Alpha  occ. eigenvalues --   -1.15487  -1.15395  -1.15390  -1.15317  -1.15282
 Alpha  occ. eigenvalues --   -1.15109  -1.15008  -1.14947  -1.14129  -1.13990
 Alpha  occ. eigenvalues --   -1.13898  -1.13867  -1.13777  -1.13725  -1.13556
 Alpha  occ. eigenvalues --   -1.13498  -1.13349  -1.13339  -1.13295  -1.13116
 Alpha  occ. eigenvalues --   -0.22179  -0.14688  -0.12892  -0.11719
 Alpha virt. eigenvalues --   -0.06568  -0.04205  -0.03773  -0.03687  -0.02658
 Alpha virt. eigenvalues --   -0.02253  -0.01972  -0.00284  -0.00271   0.00218
 Alpha virt. eigenvalues --    0.00561   0.00763   0.00855   0.00964   0.01115

  Beta  occ. eigenvalues --  -38.45430 -38.45301 -38.45279 -38.44012 -38.43825
  Beta  occ. eigenvalues --  -38.43482 -38.43347  -2.21509  -2.21486  -2.21363
  Beta  occ. eigenvalues --   -2.20236  -2.20090  -2.19850  -2.19653  -1.15505
  Beta  occ. eigenvalues --   -1.15367  -1.15250  -1.15247  -1.15174  -1.15139
  Beta  occ. eigenvalues --   -1.15120  -1.15025  -1.14948  -1.14115  -1.13976
  Beta  occ. eigenvalues --   -1.13856  -1.13801  -1.13759  -1.13623  -1.13545
  Beta  occ. eigenvalues --   -1.13383  -1.13338  -1.13287  -1.13234  -1.13100
  Beta  occ. eigenvalues --   -0.21275  -0.14396  -0.11332
  Beta virt. eigenvalues --   -0.08543  -0.06440  -0.03724  -0.03268  -0.03165
  Beta virt. eigenvalues --   -0.01932  -0.01762  -0.01723  -0.00260  -0.00059
  Beta virt. eigenvalues --    0.00267   0.00589   0.00842   0.00999   0.01035

 Mulliken charges and spin densities:
               1          2
     1  Na  -0.232779   0.122477
     2  Na  -0.025855   0.006770
     3  Na  -0.109591  -0.143383
     4  Na  -0.214619   0.130435
     5  Na   0.060705   0.451875
     6  Na   0.190797   0.342741
     7  Na   0.331343   0.089084
 Sum of Mulliken charges =  -0.00000   1.00000

 Dipole moment (field-independent basis, Debye):
    X=              0.9066    Y=             -0.1603    Z=             -0.0554  Tot=              0.9223
 Quadrupole moment (field-independent basis, Debye-Ang):
   XX=            -50.6364   YY=            -79.3730   ZZ=            -65.5401
   XY=              0.2437   XZ=             -0.1900   YZ=             -0.7238

 Normal termination of Gaussian 16 at Mon Nov 13 20:07:12 2023.
