 Gaussian 16, Revision B.01,
 Gaussian 16:  ES64L-G16RevB.01 20-Dec-2017

 -------------------------
 #P B3LYP/6-311+g(d) force
 -------------------------

 -----
 DPGEN
 -----
 Symbolic Z-matrix:
 Charge =  0 Multiplicity = 2

                         Standard orientation:
 ---------------------------------------------------------------------
 Center     Atomic      Atomic             Coordinates (Angstroms)
 Number     Number       Type             X           Y           Z
 ---------------------------------------------------------------------
      1         11           0       49.977475   67.541200   -0.057446
      2         11           0       14.164872  -23.902779   -0.362105
      3         11           0       18.580878  -22.638767   -0.499843
      4         11           0       21.575227  -22.386462   -0.087187
      5         11           0       25.679427  -22.534837    0.932839
      6         11           0      -64.985791   12.985140    1.060162
      7         11           0      -64.992087   10.936505   -0.986420
 ---------------------------------------------------------------------

 SCF Done:  E(UB3LYP) =  -1136.06379284     A.U. after   17 cycles

 The electronic state is 2-A.
 Alpha  occ. eigenvalues --  -38.46374 -38.46165 -38.45773 -38.44851 -38.44590
 Alpha  occ. eigenvalues --  -38.44163 -38.44163  -2.22054  -2.21854  -2.21558
 Alpha  occ. eigenvalues --   -2.20617  -2.20363  -2.19984  -2.19963  -1.15731
 Alpha  occ. eigenvalues --   -1.15731  -1.15690  -1.15531  -1.15531  -1.15486
 Alpha  occ. eigenvalues --   -1.15171  -1.15171  -1.15171  -1.14329  -1.14287
 Alpha  occ. eigenvalues --   -1.14281  -1.14034  -1.14034  -1.13971  -1.13843
 Alpha  occ. eigenvalues --   -1.13638  -1.13638  -1.13594  -1.13594  -1.13494
 Alpha  occ. eigenvalues --   -0.14005  -0.13229  -0.12801  -0.11565
 Alpha virt. eigenvalues --   -0.09071  -0.05354  -0.04849  -0.02892  -0.02889
 Alpha virt. eigenvalues --   -0.02418  -0.02418  -0.02100  -0.02100  -0.02100
 Alpha virt. eigenvalues --   -0.01981  -0.01853  -0.01836  -0.00928  -0.00688

  Beta  occ. eigenvalues --  -38.46374 -38.46165 -38.45588 -38.44851 -38.44590
  Beta  occ. eigenvalues --  -38.44163 -38.44163  -2.22054  -2.21854  -2.21212
  Beta  occ. eigenvalues --   -2.20617  -2.20363  -2.19984  -2.19963  -1.15731
  Beta  occ. eigenvalues --   -1.15731  -1.15690  -1.15531  -1.15531  -1.15486
  Beta  occ. eigenvalues --   -1.14936  -1.14936  -1.14936  -1.14329  -1.14287
  Beta  occ. eigenvalues --   -1.14281  -1.14034  -1.14034  -1.13971  -1.13843
  Beta  occ. eigenvalues --   -1.13638  -1.13638  -1.13594  -1.13594  -1.13494
  Beta  occ. eigenvalues --   -0.14005  -0.13229  -0.11565
  Beta virt. eigenvalues --   -0.09071  -0.06221  -0.05354  -0.04849  -0.02892
  Beta virt. eigenvalues --   -0.02889  -0.02418  -0.02418  -0.01981  -0.01853
  Beta virt. eigenvalues --   -0.01836  -0.00928  -0.00688  -0.00670  -0.00087

 Mulliken charges and spin densities:
               1          2
     1  Na  -0.000000   1.000000
     2  Na   0.044940   0.000000
     3  Na  -0.015964   0.000000
     4  Na  -0.136163  -0.000000
     5  Na   0.107187  -0.000000
     6  Na   0.000002  -0.000000
     7  Na  -0.000002   0.000000
 Sum of Mulliken charges =  -0.00000   1.00000

 Dipole moment (field-independent basis, Debye):
    X=              0.0619    Y=             -0.2198    Z=              0.2044  Tot=              0.3065
 Quadrupole moment (field-independent basis, Debye-Ang):
   XX=            -47.1848   YY=            -62.6128   ZZ=            -72.8070
   XY=             -2.4094   XZ=              7.4770   YZ=              0.6409

 Normal termination of Gaussian 16 at Thu Nov 23 12:41:10 2023.
