 Gaussian 16, Revision B.01,
 Gaussian 16:  ES64L-G16RevB.01 20-Dec-2017

 -------------------------
 #P B3LYP/6-311+g(d) force
 -------------------------

 -----
 DPGEN
 -----
 Symbolic Z-matrix:
 Charge =  0 Multiplicity = 2

                         Standard orientation:
 ---------------------------------------------------------------------
 Center     Atomic      Atomic             Coordinates (Angstroms)
 Number     Number       Type             X           Y           Z
 ---------------------------------------------------------------------
      1         11           0       54.391909    5.908863   -0.496461
      2         11           0      -43.077735    2.657392    1.966568
      3         11           0      -39.947623    1.602091   -1.084711
      4         11           0      -38.642303   -1.491913   -0.904937
      5         11           0      -41.205472   -2.819741   -0.070305
      6         11           0       55.576427   -2.587505   -0.256179
      7         11           0       52.904797   -3.269186    0.846025
 ---------------------------------------------------------------------

 SCF Done:  E(UB3LYP) =  -1136.07305883     A.U. after   16 cycles

 The electronic state is 2-A.
 Alpha  occ. eigenvalues --  -38.45706 -38.45453 -38.45008 -38.44564 -38.44474
 Alpha  occ. eigenvalues --  -38.44179 -38.44179  -2.21491  -2.21239  -2.20740
 Alpha  occ. eigenvalues --   -2.20407  -2.20170  -2.19985  -2.19971  -1.15103
 Alpha  occ. eigenvalues --   -1.15103  -1.15103  -1.14933  -1.14894  -1.14881
 Alpha  occ. eigenvalues --   -1.14431  -1.14407  -1.14376  -1.14070  -1.14058
 Alpha  occ. eigenvalues --   -1.14047  -1.13854  -1.13848  -1.13800  -1.13798
 Alpha  occ. eigenvalues --   -1.13644  -1.13644  -1.13609  -1.13609  -1.13516
 Alpha  occ. eigenvalues --   -0.15034  -0.13161  -0.12729  -0.10837
 Alpha virt. eigenvalues --   -0.07792  -0.05450  -0.05069  -0.03303  -0.02744
 Alpha virt. eigenvalues --   -0.02572  -0.02420  -0.02054  -0.01988  -0.01926
 Alpha virt. eigenvalues --   -0.01662  -0.01213  -0.00909  -0.00744  -0.00410

  Beta  occ. eigenvalues --  -38.45520 -38.45453 -38.45008 -38.44564 -38.44474
  Beta  occ. eigenvalues --  -38.44179 -38.44178  -2.21239  -2.21145  -2.20740
  Beta  occ. eigenvalues --   -2.20407  -2.20170  -2.19984  -2.19971  -1.14933
  Beta  occ. eigenvalues --   -1.14894  -1.14881  -1.14869  -1.14869  -1.14868
  Beta  occ. eigenvalues --   -1.14431  -1.14407  -1.14376  -1.14070  -1.14058
  Beta  occ. eigenvalues --   -1.14047  -1.13854  -1.13848  -1.13800  -1.13797
  Beta  occ. eigenvalues --   -1.13644  -1.13643  -1.13608  -1.13608  -1.13516
  Beta  occ. eigenvalues --   -0.15034  -0.13155  -0.10837
  Beta virt. eigenvalues --   -0.07792  -0.06221  -0.05453  -0.05069  -0.03303
  Beta virt. eigenvalues --   -0.02744  -0.02422  -0.02403  -0.01926  -0.01213
  Beta virt. eigenvalues --   -0.01007  -0.00744  -0.00410  -0.00169  -0.00059

 Mulliken charges and spin densities:
               1          2
     1  Na   0.003495   1.003174
     2  Na  -0.030869  -0.000000
     3  Na  -0.154822   0.000000
     4  Na   0.137805  -0.000000
     5  Na   0.047886   0.000000
     6  Na  -0.033868   0.000101
     7  Na   0.030373  -0.003275
 Sum of Mulliken charges =  -0.00000   1.00000

 Dipole moment (field-independent basis, Debye):
    X=              0.3668    Y=             -1.8285    Z=             -0.3705  Tot=              1.9013
 Quadrupole moment (field-independent basis, Debye-Ang):
   XX=            -93.8897   YY=            -80.0985   ZZ=            -72.6844
   XY=             76.9037   XZ=              7.4208   YZ=             -3.5576

 Normal termination of Gaussian 16 at Thu Nov 23 12:41:07 2023.
