 Gaussian 16, Revision B.01,

 -------------------------
 #p B3LYP/6-311+g(d) force
 -------------------------

 (Enter /home/sekinelabo/g16/l101.exe)

 Symbolic Z-matrix:
 Charge =  0 Multiplicity = 1

 SCF Done:  E(RB3LYP) =  -649.165764472     A.U. after   15 cycles
 Normal termination of Gaussian 16 at Fri Sep 29 22:52:06 2023.

 -------------------------
 #p B3LYP/6-311+g(d) force
 -------------------------

 (Enter /home/sekinelabo/g16/l101.exe)

 Symbolic Z-matrix:
 Charge =  0 Multiplicity = 1

 SCF Done:  E(RB3LYP) =  -649.186537261     A.U. after   15 cycles
 Normal termination of Gaussian 16 at Fri Sep 29 22:52:08 2023.

 -------------------------
 #p B3LYP/6-311+g(d) force
 -------------------------

 (Enter /home/sekinelabo/g16/l101.exe)

 Symbolic Z-matrix:
 Charge =  0 Multiplicity = 1

 SCF Done:  E(RB3LYP) =  -649.178311250     A.U. after   15 cycles
 Normal termination of Gaussian 16 at Fri Sep 29 22:52:10 2023.

 -------------------------
 #p B3LYP/6-311+g(d) force
 -------------------------

 (Enter /home/sekinelabo/g16/l101.exe)

 Symbolic Z-matrix:
 Charge =  0 Multiplicity = 1

 SCF Done:  E(RB3LYP) =  -649.168835030     A.U. after   15 cycles
 Normal termination of Gaussian 16 at Fri Sep 29 22:52:11 2023.

 -------------------------
 #p B3LYP/6-311+g(d) force
 -------------------------

 (Enter /home/sekinelabo/g16/l101.exe)

 Symbolic Z-matrix:
 Charge =  0 Multiplicity = 1

 SCF Done:  E(RB3LYP) =  -649.189358756     A.U. after   14 cycles

 -------------------------
 #p B3LYP/6-311+g(d) force
 -------------------------

 (Enter /home/sekinelabo/g16/l101.exe)

 Symbolic Z-matrix:
 Charge =  0 Multiplicity = 1

 SCF Done:  E(RB3LYP) =  -649.175990894     A.U. after   18 cycles
 SCF Done:  E(RB3LYP) =  -649.189702018     A.U. after   13 cycles
 Normal termination of Gaussian 16 at Fri Sep 29 22:52:17 2023.
 SCF Done:  E(RB3LYP) =  -649.200838197     A.U. after   12 cycles
 Normal termination of Gaussian 16 at Fri Sep 29 22:52:18 2023.
 SCF Done:  E(RB3LYP) =  -649.182161225     A.U. after   13 cycles
 Normal termination of Gaussian 16 at Fri Sep 29 22:52:20 2023.
 Gaussian 16:  ES64L-G16RevB.01 20-Dec-2017

                         Standard orientation:
 ---------------------------------------------------------------------
 Center     Atomic      Atomic             Coordinates (Angstroms)
 Number     Number       Type             X           Y           Z
 ---------------------------------------------------------------------
      1         11           0        0.000000    0.000000   -5.052248
      2         11           0        0.000000    0.000000   -2.409838
      3         11           0        0.000000    0.000000    1.180628
      4         11           0        0.000000    0.000000    6.281458
 ---------------------------------------------------------------------

 SCF Done:  E(RB3LYP) =  -649.176206886     A.U. after   17 cycles

 The electronic state is 1-SG.
 Alpha  occ. eigenvalues --  -38.46434 -38.45692 -38.45308 -38.44291  -2.22107
 Alpha  occ. eigenvalues --   -2.21397  -2.21160  -2.20169  -1.15783  -1.15783
 Alpha  occ. eigenvalues --   -1.15745  -1.15079  -1.15079  -1.15056  -1.15022
 Alpha  occ. eigenvalues --   -1.14767  -1.14767  -1.13810  -1.13788  -1.13788
 Alpha  occ. eigenvalues --   -0.14634  -0.11701
 Alpha virt. eigenvalues --   -0.08695  -0.04353  -0.03190  -0.03190  -0.01897
 Alpha virt. eigenvalues --   -0.01897  -0.01553  -0.00366  -0.00366   0.00023
 Alpha virt. eigenvalues --    0.00180   0.01078   0.01101   0.01101   0.01180

 Mulliken charges:
               1
     1  Na   0.252375
     2  Na  -0.604404
     3  Na   0.250320
     4  Na   0.101709
 Sum of Mulliken charges =   0.00000

 Dipole moment (field-independent basis, Debye):
    X=              0.0000    Y=              0.0000    Z=             -0.2853  Tot=              0.2853
 Quadrupole moment (field-independent basis, Debye-Ang):
   XX=            -44.8241   YY=            -44.8241   ZZ=            -17.2606
   XY=              0.0000   XZ=              0.0000   YZ=              0.0000

 Normal termination of Gaussian 16 at Fri Sep 29 22:52:22 2023.
