 Gaussian 16, Revision B.01,

 -------------------------
 #p B3LYP/6-311+g(d) force
 -------------------------

 (Enter /home/sekinelabo/g16/l101.exe)

 Symbolic Z-matrix:
 Charge =  0 Multiplicity = 1

 SCF Done:  E(RB3LYP) =  -649.186884979     A.U. after   14 cycles
 Normal termination of Gaussian 16 at Fri Sep 29 22:51:14 2023.

 -------------------------
 #p B3LYP/6-311+g(d) force
 -------------------------

 (Enter /home/sekinelabo/g16/l101.exe)

 Symbolic Z-matrix:
 Charge =  0 Multiplicity = 1

 SCF Done:  E(RB3LYP) =  -649.191350569     A.U. after   12 cycles
 Normal termination of Gaussian 16 at Fri Sep 29 22:51:16 2023.

 -------------------------
 #p B3LYP/6-311+g(d) force
 -------------------------

 (Enter /home/sekinelabo/g16/l101.exe)

 Symbolic Z-matrix:
 Charge =  0 Multiplicity = 1

 SCF Done:  E(RB3LYP) =  -649.162707924     A.U. after   17 cycles
 Normal termination of Gaussian 16 at Fri Sep 29 22:51:18 2023.

 -------------------------
 #p B3LYP/6-311+g(d) force
 -------------------------

 (Enter /home/sekinelabo/g16/l101.exe)

 Symbolic Z-matrix:
 Charge =  0 Multiplicity = 1

 SCF Done:  E(RB3LYP) =  -649.180193730     A.U. after   15 cycles
 Normal termination of Gaussian 16 at Fri Sep 29 22:51:19 2023.

 -------------------------
 #p B3LYP/6-311+g(d) force
 -------------------------

 (Enter /home/sekinelabo/g16/l101.exe)

 Symbolic Z-matrix:
 Charge =  0 Multiplicity = 1

 SCF Done:  E(RB3LYP) =  -649.170479887     A.U. after   18 cycles

 -------------------------
 #p B3LYP/6-311+g(d) force
 -------------------------

 (Enter /home/sekinelabo/g16/l101.exe)

 Symbolic Z-matrix:
 Charge =  0 Multiplicity = 1

 SCF Done:  E(RB3LYP) =  -649.158807435     A.U. after   15 cycles
 SCF Done:  E(RB3LYP) =  -649.172399948     A.U. after   18 cycles
 Normal termination of Gaussian 16 at Fri Sep 29 22:51:26 2023.
 SCF Done:  E(RB3LYP) =  -649.168295149     A.U. after   14 cycles
 Normal termination of Gaussian 16 at Fri Sep 29 22:51:27 2023.
 SCF Done:  E(RB3LYP) =  -649.168802996     A.U. after   17 cycles
 Normal termination of Gaussian 16 at Fri Sep 29 22:51:30 2023.
 Gaussian 16:  ES64L-G16RevB.01 20-Dec-2017

                         Standard orientation:
 ---------------------------------------------------------------------
 Center     Atomic      Atomic             Coordinates (Angstroms)
 Number     Number       Type             X           Y           Z
 ---------------------------------------------------------------------
      1         11           0        0.000000    0.000000    4.648249
      2         11           0        0.000000    0.000000    0.824217
      3         11           0        0.000000    0.000000   -1.458882
      4         11           0        0.000000    0.000000   -4.013583
 ---------------------------------------------------------------------

 SCF Done:  E(RB3LYP) =  -649.164134512     A.U. after   12 cycles

 The electronic state is 1-SG.
 Alpha  occ. eigenvalues --  -38.46379 -38.46160 -38.45664 -38.45162  -2.22563
 Alpha  occ. eigenvalues --   -2.22021  -2.21534  -2.20873  -1.17427  -1.16001
 Alpha  occ. eigenvalues --   -1.16001  -1.15556  -1.15556  -1.15503  -1.15121
 Alpha  occ. eigenvalues --   -1.15121  -1.14912  -1.14549  -1.14549  -1.14493
 Alpha  occ. eigenvalues --   -0.15921  -0.11969
 Alpha virt. eigenvalues --   -0.07466  -0.03891  -0.03891  -0.03038  -0.01659
 Alpha virt. eigenvalues --   -0.01659  -0.00469   0.00159   0.00159   0.00376
 Alpha virt. eigenvalues --    0.00511   0.01287   0.01287   0.01464   0.01523

 Mulliken charges:
               1
     1  Na   0.086310
     2  Na  -0.232592
     3  Na   0.600553
     4  Na  -0.454271
 Sum of Mulliken charges =  -0.00000

 Dipole moment (field-independent basis, Debye):
    X=              0.0000    Y=              0.0000    Z=             -0.6467  Tot=              0.6467
 Quadrupole moment (field-independent basis, Debye-Ang):
   XX=            -43.5779   YY=            -43.5779   ZZ=            -21.4785
   XY=              0.0000   XZ=              0.0000   YZ=              0.0000

 Normal termination of Gaussian 16 at Fri Sep 29 22:51:31 2023.
