 Gaussian 16, Revision B.01,
 Gaussian 16:  ES64L-G16RevB.01 20-Dec-2017

 -------------------------
 #P B3LYP/6-311+g(d) force
 -------------------------

 -----
 DPGEN
 -----
 Symbolic Z-matrix:
 Charge =  0 Multiplicity = 2

                         Standard orientation:
 ---------------------------------------------------------------------
 Center     Atomic      Atomic             Coordinates (Angstroms)
 Number     Number       Type             X           Y           Z
 ---------------------------------------------------------------------
      1         11           0       54.440802    5.925456   -0.507400
      2         11           0      -43.091907    2.607675    2.135287
      3         11           0      -39.999548    1.569939   -1.147726
      4         11           0      -38.699034   -1.223076   -0.962549
      5         11           0      -41.210997   -2.997374   -0.123959
      6         11           0       55.512740   -2.521821   -0.322663
      7         11           0       53.047945   -3.360799    0.929010
 ---------------------------------------------------------------------

 SCF Done:  E(UB3LYP) =  -1136.06953619     A.U. after   17 cycles

 The electronic state is 2-A.
 Alpha  occ. eigenvalues --  -38.45718 -38.45376 -38.45068 -38.44770 -38.44597
 Alpha  occ. eigenvalues --  -38.44168 -38.44167  -2.21504  -2.21139  -2.20827
 Alpha  occ. eigenvalues --   -2.20464  -2.20442  -2.19991  -2.19968  -1.15116
 Alpha  occ. eigenvalues --   -1.15116  -1.15115  -1.14805  -1.14802  -1.14791
 Alpha  occ. eigenvalues --   -1.14543  -1.14494  -1.14460  -1.14147  -1.14141
 Alpha  occ. eigenvalues --   -1.14101  -1.14097  -1.14094  -1.14076  -1.13854
 Alpha  occ. eigenvalues --   -1.13643  -1.13643  -1.13598  -1.13598  -1.13497
 Alpha  occ. eigenvalues --   -0.15021  -0.13247  -0.12742  -0.10820
 Alpha virt. eigenvalues --   -0.08067  -0.05347  -0.04979  -0.03292  -0.02782
 Alpha virt. eigenvalues --   -0.02597  -0.02455  -0.02064  -0.02002  -0.01988
 Alpha virt. eigenvalues --   -0.01695  -0.01227  -0.00843  -0.00736  -0.00532

  Beta  occ. eigenvalues --  -38.45532 -38.45376 -38.45068 -38.44770 -38.44597
  Beta  occ. eigenvalues --  -38.44168 -38.44167  -2.21158  -2.21139  -2.20827
  Beta  occ. eigenvalues --   -2.20464  -2.20442  -2.19991  -2.19968  -1.14882
  Beta  occ. eigenvalues --   -1.14881  -1.14881  -1.14805  -1.14802  -1.14791
  Beta  occ. eigenvalues --   -1.14543  -1.14494  -1.14460  -1.14147  -1.14141
  Beta  occ. eigenvalues --   -1.14101  -1.14097  -1.14094  -1.14076  -1.13853
  Beta  occ. eigenvalues --   -1.13643  -1.13643  -1.13598  -1.13598  -1.13497
  Beta  occ. eigenvalues --   -0.15021  -0.13242  -0.10820
  Beta virt. eigenvalues --   -0.08067  -0.06231  -0.05349  -0.04979  -0.03292
  Beta virt. eigenvalues --   -0.02782  -0.02458  -0.02440  -0.01988  -0.01227
  Beta virt. eigenvalues --   -0.00962  -0.00736  -0.00532  -0.00158  -0.00069

 Mulliken charges and spin densities:
               1          2
     1  Na   0.003217   1.003193
     2  Na  -0.024771   0.000000
     3  Na  -0.142572   0.000000
     4  Na   0.083090  -0.000000
     5  Na   0.084253  -0.000000
     6  Na  -0.044536   0.000544
     7  Na   0.041319  -0.003737
 Sum of Mulliken charges =  -0.00000   1.00000

 Dipole moment (field-independent basis, Debye):
    X=              0.2172    Y=             -1.6043    Z=             -0.3215  Tot=              1.6506
 Quadrupole moment (field-independent basis, Debye-Ang):
   XX=            -84.6767   YY=            -78.8888   ZZ=            -72.1227
   XY=             68.9422   XZ=              6.0576   YZ=             -4.3174

 Normal termination of Gaussian 16 at Thu Nov 23 12:41:24 2023.
