 Gaussian 16, Revision B.01,
 Gaussian 16:  ES64L-G16RevB.01 20-Dec-2017

 -------------------------
 #P B3LYP/6-311+g(d) force
 -------------------------

 -----
 DPGEN
 -----
 Symbolic Z-matrix:
 Charge =  0 Multiplicity = 2

                         Standard orientation:
 ---------------------------------------------------------------------
 Center     Atomic      Atomic             Coordinates (Angstroms)
 Number     Number       Type             X           Y           Z
 ---------------------------------------------------------------------
      1         11           0       54.889661    6.511552   -0.645704
      2         11           0      -43.193931    2.327383    1.741258
      3         11           0      -41.059583    2.586299   -0.189907
      4         11           0      -39.504600   -1.155114   -0.804857
      5         11           0      -40.526310   -3.824622   -0.819723
      6         11           0       55.604494   -2.546900   -0.457856
      7         11           0       53.790270   -3.898600    1.176788
 ---------------------------------------------------------------------

 SCF Done:  E(UB3LYP) =  -1136.08690217     A.U. after   13 cycles

 The electronic state is 2-A.
 Alpha  occ. eigenvalues --  -38.45766 -38.44704 -38.44277 -38.44187 -38.44186
 Alpha  occ. eigenvalues --  -38.43910 -38.43787  -2.21552  -2.20513  -2.20099
 Alpha  occ. eigenvalues --   -2.20035  -2.19996  -2.19732  -2.19609  -1.15164
 Alpha  occ. eigenvalues --   -1.15163  -1.15163  -1.14275  -1.14155  -1.14151
 Alpha  occ. eigenvalues --   -1.13974  -1.13743  -1.13736  -1.13730  -1.13677
 Alpha  occ. eigenvalues --   -1.13677  -1.13616  -1.13615  -1.13582  -1.13500
 Alpha  occ. eigenvalues --   -1.13372  -1.13371  -1.13252  -1.13240  -1.13171
 Alpha  occ. eigenvalues --   -0.14365  -0.13349  -0.12793  -0.12403
 Alpha virt. eigenvalues --   -0.06528  -0.05221  -0.04240  -0.03048  -0.02867
 Alpha virt. eigenvalues --   -0.02569  -0.02487  -0.02101  -0.02067  -0.01901
 Alpha virt. eigenvalues --   -0.01700  -0.01175  -0.00967  -0.00764   0.00240

  Beta  occ. eigenvalues --  -38.45580 -38.44704 -38.44277 -38.44187 -38.44185
  Beta  occ. eigenvalues --  -38.43910 -38.43787  -2.21205  -2.20513  -2.20099
  Beta  occ. eigenvalues --   -2.20035  -2.19996  -2.19732  -2.19609  -1.14929
  Beta  occ. eigenvalues --   -1.14929  -1.14929  -1.14275  -1.14155  -1.14151
  Beta  occ. eigenvalues --   -1.13974  -1.13743  -1.13736  -1.13730  -1.13677
  Beta  occ. eigenvalues --   -1.13677  -1.13615  -1.13615  -1.13582  -1.13500
  Beta  occ. eigenvalues --   -1.13372  -1.13371  -1.13252  -1.13240  -1.13171
  Beta  occ. eigenvalues --   -0.14365  -0.13347  -0.12403
  Beta virt. eigenvalues --   -0.06528  -0.06264  -0.05225  -0.04240  -0.03048
  Beta virt. eigenvalues --   -0.02867  -0.02495  -0.02483  -0.01700  -0.01175
  Beta virt. eigenvalues --   -0.00967  -0.00921  -0.00127  -0.00095   0.00052

 Mulliken charges and spin densities:
               1          2
     1  Na   0.000578   1.002730
     2  Na   0.046433  -0.000000
     3  Na  -0.013492   0.000000
     4  Na  -0.360902  -0.000000
     5  Na   0.327962   0.000000
     6  Na  -0.075785  -0.002175
     7  Na   0.075208  -0.000555
 Sum of Mulliken charges =  -0.00000   1.00000

 Dipole moment (field-independent basis, Debye):
    X=             -0.7746    Y=              0.2981    Z=              0.5075  Tot=              0.9729
 Quadrupole moment (field-independent basis, Debye-Ang):
   XX=             -7.5984   YY=            -67.8760   ZZ=            -69.8228
   XY=             -5.4859   XZ=            -27.6909   YZ=             -3.7315

 Normal termination of Gaussian 16 at Thu Nov 23 12:39:44 2023.
