 Gaussian 16, Revision B.01,
 Gaussian 16:  ES64L-G16RevB.01 20-Dec-2017

 -------------------------
 #P B3LYP/6-311+g(d) force
 -------------------------

 -----
 DPGEN
 -----
 Symbolic Z-matrix:
 Charge =  0 Multiplicity = 2

                         Standard orientation:
 ---------------------------------------------------------------------
 Center     Atomic      Atomic             Coordinates (Angstroms)
 Number     Number       Type             X           Y           Z
 ---------------------------------------------------------------------
      1         11           0      -14.430708   20.047221    0.381921
      2         11           0       20.435523    1.828762   -1.008667
      3         11           0       19.939043    4.229707    1.060096
      4         11           0       -6.876659   -3.578766   -2.316855
      5         11           0       -5.951270   -6.646941   -1.974926
      6         11           0       -7.490681   -7.553772    0.532941
      7         11           0       -5.625248   -8.326211    3.325490
 ---------------------------------------------------------------------

 SCF Done:  E(UB3LYP) =  -1136.08853302     A.U. after   12 cycles

 The electronic state is 2-A.
 Alpha  occ. eigenvalues --  -38.45786 -38.44613 -38.44527 -38.44324 -38.44323
 Alpha  occ. eigenvalues --  -38.44108 -38.44096  -2.21571  -2.20379  -2.20362
 Alpha  occ. eigenvalues --   -2.20089  -2.20086  -2.19922  -2.19841  -1.15183
 Alpha  occ. eigenvalues --   -1.15183  -1.15183  -1.14089  -1.14074  -1.14045
 Alpha  occ. eigenvalues --   -1.14038  -1.14012  -1.13936  -1.13802  -1.13759
 Alpha  occ. eigenvalues --   -1.13759  -1.13742  -1.13742  -1.13661  -1.13615
 Alpha  occ. eigenvalues --   -1.13586  -1.13540  -1.13512  -1.13510  -1.13456
 Alpha  occ. eigenvalues --   -0.14896  -0.12907  -0.12814  -0.11558
 Alpha virt. eigenvalues --   -0.06822  -0.05767  -0.04744  -0.03071  -0.02452
 Alpha virt. eigenvalues --   -0.02296  -0.02296  -0.02113  -0.02112  -0.02112
 Alpha virt. eigenvalues --   -0.01851  -0.01140  -0.00940  -0.00754  -0.00034

  Beta  occ. eigenvalues --  -38.45600 -38.44613 -38.44527 -38.44324 -38.44323
  Beta  occ. eigenvalues --  -38.44108 -38.44096  -2.21225  -2.20379  -2.20362
  Beta  occ. eigenvalues --   -2.20089  -2.20086  -2.19922  -2.19841  -1.14949
  Beta  occ. eigenvalues --   -1.14949  -1.14949  -1.14089  -1.14074  -1.14045
  Beta  occ. eigenvalues --   -1.14038  -1.14012  -1.13936  -1.13802  -1.13759
  Beta  occ. eigenvalues --   -1.13759  -1.13742  -1.13742  -1.13661  -1.13615
  Beta  occ. eigenvalues --   -1.13586  -1.13540  -1.13512  -1.13510  -1.13456
  Beta  occ. eigenvalues --   -0.14896  -0.12907  -0.11558
  Beta virt. eigenvalues --   -0.06822  -0.06234  -0.05767  -0.04744  -0.03071
  Beta virt. eigenvalues --   -0.02452  -0.02296  -0.02296  -0.01851  -0.01140
  Beta virt. eigenvalues --   -0.00940  -0.00754  -0.00098  -0.00098  -0.00098

 Mulliken charges and spin densities:
               1          2
     1  Na  -0.000000   1.000000
     2  Na   0.000027  -0.000000
     3  Na  -0.000027   0.000000
     4  Na   0.201485  -0.000009
     5  Na  -0.093163   0.000009
     6  Na  -0.275726  -0.000001
     7  Na   0.167404   0.000001
 Sum of Mulliken charges =  -0.00000   1.00000

 Dipole moment (field-independent basis, Debye):
    X=              0.1346    Y=              0.7312    Z=             -0.3817  Tot=              0.8357
 Quadrupole moment (field-independent basis, Debye-Ang):
   XX=            -74.0336   YY=            -73.0145   ZZ=            -67.5438
   XY=            -10.2028   XZ=              3.5818   YZ=              7.6104

 Normal termination of Gaussian 16 at Tue Nov 21 11:47:58 2023.
