 Gaussian 16, Revision B.01,
 Gaussian 16:  ES64L-G16RevB.01 20-Dec-2017

 -------------------------
 #P B3LYP/6-311+g(d) force
 -------------------------

 -----
 DPGEN
 -----
 Symbolic Z-matrix:
 Charge =  0 Multiplicity = 2

                         Standard orientation:
 ---------------------------------------------------------------------
 Center     Atomic      Atomic             Coordinates (Angstroms)
 Number     Number       Type             X           Y           Z
 ---------------------------------------------------------------------
      1         11           0       -4.142013   -2.595239    2.459570
      2         11           0       -5.600897   -3.933852    0.397286
      3         11           0       -5.753180   -1.841041   -1.780259
      4         11           0       -3.246196    0.054859   -1.790254
      5         11           0       -3.498282    2.232421    0.128551
      6         11           0       24.722387   -0.745848   -0.063928
      7         11           0       -2.481818    6.828700    0.649034
 ---------------------------------------------------------------------

 SCF Done:  E(UB3LYP) =  -1136.06975046     A.U. after   17 cycles

 The electronic state is 2-A.
 Alpha  occ. eigenvalues --  -38.45768 -38.45452 -38.45333 -38.45107 -38.44711
 Alpha  occ. eigenvalues --  -38.44450 -38.43835  -2.21552  -2.21145  -2.21138
 Alpha  occ. eigenvalues --   -2.20954  -2.20499  -2.20352  -2.19713  -1.15165
 Alpha  occ. eigenvalues --   -1.15165  -1.15165  -1.14892  -1.14814  -1.14814
 Alpha  occ. eigenvalues --   -1.14788  -1.14778  -1.14776  -1.14661  -1.14622
 Alpha  occ. eigenvalues --   -1.14598  -1.14232  -1.14162  -1.14132  -1.14007
 Alpha  occ. eigenvalues --   -1.13995  -1.13972  -1.13383  -1.13355  -1.13349
 Alpha  occ. eigenvalues --   -0.16473  -0.13196  -0.12795  -0.10906
 Alpha virt. eigenvalues --   -0.08585  -0.05493  -0.04693  -0.03711  -0.03138
 Alpha virt. eigenvalues --   -0.02431  -0.02094  -0.02094  -0.02094  -0.01614
 Alpha virt. eigenvalues --   -0.01445  -0.01248  -0.00557  -0.00203  -0.00043

  Beta  occ. eigenvalues --  -38.45582 -38.45452 -38.45333 -38.45107 -38.44711
  Beta  occ. eigenvalues --  -38.44450 -38.43835  -2.21206  -2.21145  -2.21138
  Beta  occ. eigenvalues --   -2.20954  -2.20499  -2.20352  -2.19713  -1.14931
  Beta  occ. eigenvalues --   -1.14931  -1.14931  -1.14892  -1.14814  -1.14814
  Beta  occ. eigenvalues --   -1.14788  -1.14778  -1.14776  -1.14661  -1.14622
  Beta  occ. eigenvalues --   -1.14598  -1.14232  -1.14162  -1.14132  -1.14007
  Beta  occ. eigenvalues --   -1.13995  -1.13972  -1.13383  -1.13355  -1.13349
  Beta  occ. eigenvalues --   -0.16473  -0.13196  -0.10906
  Beta virt. eigenvalues --   -0.08585  -0.06215  -0.05493  -0.04693  -0.03711
  Beta virt. eigenvalues --   -0.03138  -0.02431  -0.01614  -0.01445  -0.01248
  Beta virt. eigenvalues --   -0.00557  -0.00203  -0.00081  -0.00081  -0.00080

 Mulliken charges and spin densities:
               1          2
     1  Na   0.237118   0.000000
     2  Na  -0.091608   0.000001
     3  Na   0.360937   0.000004
     4  Na  -0.052201  -0.000003
     5  Na  -0.335275  -0.000002
     6  Na   0.000000   1.000000
     7  Na  -0.118970  -0.000000
 Sum of Mulliken charges =  -0.00000   1.00000

 Dipole moment (field-independent basis, Debye):
    X=             -0.4873    Y=             -1.5473    Z=              0.0529  Tot=              1.6231
 Quadrupole moment (field-independent basis, Debye-Ang):
   XX=            -66.6526   YY=            -69.3423   ZZ=            -72.7973
   XY=              9.0363   XZ=              2.8413   YZ=              3.9062

 Normal termination of Gaussian 16 at Tue Nov 21 11:49:41 2023.
