 Gaussian 16, Revision B.01,
 Gaussian 16:  ES64L-G16RevB.01 20-Dec-2017

 -------------------------
 #P B3LYP/6-311+g(d) force
 -------------------------

 -----
 DPGEN
 -----
 Symbolic Z-matrix:
 Charge =  0 Multiplicity = 2

                         Standard orientation:
 ---------------------------------------------------------------------
 Center     Atomic      Atomic             Coordinates (Angstroms)
 Number     Number       Type             X           Y           Z
 ---------------------------------------------------------------------
      1         11           0      -28.623222   -6.414750   -0.821203
      2         11           0       69.836581   -4.824112    0.230185
      3         11           0      -28.072698   -2.378889   -0.811661
      4         11           0      -26.249752   -0.214878    1.881807
      5         11           0      -26.641810    2.560231    0.797547
      6         11           0      -28.902246    6.404669   -0.983301
      7         11           0       68.653147    4.867728   -0.293372
 ---------------------------------------------------------------------

 SCF Done:  E(UB3LYP) =  -1136.05888595     A.U. after   24 cycles

 The electronic state is 2-A.
 Alpha  occ. eigenvalues --  -38.46123 -38.45770 -38.45770 -38.44925 -38.44772
 Alpha  occ. eigenvalues --  -38.44754 -38.44627  -2.21753  -2.21556  -2.21555
 Alpha  occ. eigenvalues --   -2.20652  -2.20553  -2.20446  -2.20423  -1.15473
 Alpha  occ. eigenvalues --   -1.15473  -1.15458  -1.15168  -1.15168  -1.15168
 Alpha  occ. eigenvalues --   -1.15168  -1.15168  -1.15168  -1.14334  -1.14329
 Alpha  occ. eigenvalues --   -1.14293  -1.14239  -1.14209  -1.14205  -1.14143
 Alpha  occ. eigenvalues --   -1.14143  -1.14091  -1.14086  -1.14068  -1.14025
 Alpha  occ. eigenvalues --   -0.14436  -0.12821  -0.12779  -0.11636
 Alpha virt. eigenvalues --   -0.08122  -0.06523  -0.04892  -0.03108  -0.02628
 Alpha virt. eigenvalues --   -0.02349  -0.02175  -0.02175  -0.02070  -0.02008
 Alpha virt. eigenvalues --   -0.02008  -0.01721  -0.01648  -0.01090  -0.00831

  Beta  occ. eigenvalues --  -38.46290 -38.45584 -38.45584 -38.44883 -38.44836
  Beta  occ. eigenvalues --  -38.44729 -38.44653  -2.22065  -2.21210  -2.21209
  Beta  occ. eigenvalues --   -2.20574  -2.20565  -2.20503  -2.20472  -1.15684
  Beta  occ. eigenvalues --   -1.15684  -1.15669  -1.14933  -1.14933  -1.14933
  Beta  occ. eigenvalues --   -1.14933  -1.14933  -1.14933  -1.14295  -1.14278
  Beta  occ. eigenvalues --   -1.14273  -1.14226  -1.14226  -1.14197  -1.14175
  Beta  occ. eigenvalues --   -1.14169  -1.14168  -1.14119  -1.14096  -1.14035
  Beta  occ. eigenvalues --   -0.14559  -0.13145  -0.11804
  Beta virt. eigenvalues --   -0.06860  -0.06333  -0.06257  -0.05229  -0.03207
  Beta virt. eigenvalues --   -0.02896  -0.02457  -0.02203  -0.02003  -0.01448
  Beta virt. eigenvalues --   -0.01232  -0.00473  -0.00409  -0.00297  -0.00297

 Mulliken charges and spin densities:
               1          2
     1  Na   0.073235  -0.323763
     2  Na  -0.000000   1.000000
     3  Na  -0.151792   0.192542
     4  Na   0.325957  -0.115551
     5  Na  -0.261303   0.133129
     6  Na   0.013903  -0.886357
     7  Na   0.000000   1.000000
 Sum of Mulliken charges =  -0.00000   1.00000

 Dipole moment (field-independent basis, Debye):
    X=             -0.0121    Y=              1.3160    Z=              0.1233  Tot=              1.3218
 Quadrupole moment (field-independent basis, Debye-Ang):
   XX=            -75.4351   YY=            -60.7762   ZZ=            -74.2570
   XY=            -39.0254   XZ=             -0.5579   YZ=             -4.5653

 Normal termination of Gaussian 16 at Thu Nov 23 12:42:53 2023.
