 Gaussian 16, Revision B.01,
 Gaussian 16:  ES64L-G16RevB.01 20-Dec-2017

 -------------------------
 #P B3LYP/6-311+g(d) force
 -------------------------

 -----
 DPGEN
 -----
 Symbolic Z-matrix:
 Charge =  0 Multiplicity = 2

                         Standard orientation:
 ---------------------------------------------------------------------
 Center     Atomic      Atomic             Coordinates (Angstroms)
 Number     Number       Type             X           Y           Z
 ---------------------------------------------------------------------
      1         11           0       22.846673   13.524781    0.943847
      2         11           0       11.879556  -11.208618   -0.756312
      3         11           0       13.360153   -8.127063   -0.496357
      4         11           0      -11.580789    5.017225   -3.056259
      5         11           0      -11.912797    2.547301   -1.275135
      6         11           0      -12.491062    0.095083    0.969257
      7         11           0      -12.101733   -1.848707    3.670959
 ---------------------------------------------------------------------

 SCF Done:  E(UB3LYP) =  -1136.08782859     A.U. after   12 cycles

 The electronic state is 2-A.
 Alpha  occ. eigenvalues --  -38.45781 -38.45080 -38.44887 -38.44548 -38.44547
 Alpha  occ. eigenvalues --  -38.44155 -38.43952  -2.21566  -2.20826  -2.20670
 Alpha  occ. eigenvalues --   -2.20290  -2.20281  -2.19940  -2.19772  -1.15179
 Alpha  occ. eigenvalues --   -1.15179  -1.15179  -1.14492  -1.14492  -1.14465
 Alpha  occ. eigenvalues --   -1.14349  -1.14321  -1.14321  -1.13962  -1.13962
 Alpha  occ. eigenvalues --   -1.13953  -1.13953  -1.13950  -1.13875  -1.13615
 Alpha  occ. eigenvalues --   -1.13610  -1.13590  -1.13429  -1.13429  -1.13421
 Alpha  occ. eigenvalues --   -0.14512  -0.12809  -0.12698  -0.12402
 Alpha virt. eigenvalues --   -0.07610  -0.06062  -0.03762  -0.03050  -0.03014
 Alpha virt. eigenvalues --   -0.02232  -0.02231  -0.02108  -0.02108  -0.02108
 Alpha virt. eigenvalues --   -0.01855  -0.01814  -0.01283  -0.01057   0.00109

  Beta  occ. eigenvalues --  -38.45596 -38.45080 -38.44887 -38.44548 -38.44547
  Beta  occ. eigenvalues --  -38.44155 -38.43952  -2.21220  -2.20826  -2.20670
  Beta  occ. eigenvalues --   -2.20290  -2.20281  -2.19940  -2.19772  -1.14944
  Beta  occ. eigenvalues --   -1.14944  -1.14944  -1.14492  -1.14492  -1.14465
  Beta  occ. eigenvalues --   -1.14349  -1.14321  -1.14321  -1.13962  -1.13962
  Beta  occ. eigenvalues --   -1.13953  -1.13953  -1.13950  -1.13875  -1.13615
  Beta  occ. eigenvalues --   -1.13610  -1.13590  -1.13429  -1.13429  -1.13421
  Beta  occ. eigenvalues --   -0.14512  -0.12698  -0.12402
  Beta virt. eigenvalues --   -0.07610  -0.06229  -0.06062  -0.03762  -0.03050
  Beta virt. eigenvalues --   -0.03014  -0.02232  -0.02231  -0.01855  -0.01814
  Beta virt. eigenvalues --   -0.01283  -0.01057  -0.00092  -0.00092  -0.00091

 Mulliken charges and spin densities:
               1          2
     1  Na  -0.000000   1.000000
     2  Na   0.000033   0.000028
     3  Na  -0.000033  -0.000028
     4  Na   0.893793  -0.000000
     5  Na  -0.778516  -0.000000
     6  Na  -0.671641   0.000000
     7  Na   0.556365  -0.000000
 Sum of Mulliken charges =  -0.00000   1.00000

 Dipole moment (field-independent basis, Debye):
    X=              0.1619    Y=              0.1405    Z=              0.1956  Tot=              0.2902
 Quadrupole moment (field-independent basis, Debye-Ang):
   XX=            -79.1770   YY=            -53.7042   ZZ=            -64.2195
   XY=              4.2251   XZ=             -2.0934   YZ=            -12.0607

 Normal termination of Gaussian 16 at Tue Nov 21 11:47:54 2023.
