 Gaussian 16, Revision B.01,
 Gaussian 16:  ES64L-G16RevB.01 20-Dec-2017

 -------------------------
 #P B3LYP/6-311+g(d) force
 -------------------------

 -----
 DPGEN
 -----
 Symbolic Z-matrix:
 Charge =  0 Multiplicity = 2

                         Standard orientation:
 ---------------------------------------------------------------------
 Center     Atomic      Atomic             Coordinates (Angstroms)
 Number     Number       Type             X           Y           Z
 ---------------------------------------------------------------------
      1         11           0       24.509880   -6.273684   11.012569
      2         11           0       10.926768    6.661228   -9.246826
      3         11           0       12.568451    4.408098   -7.086669
      4         11           0      -11.893142   -6.338614    1.944817
      5         11           0      -11.678884   -6.842241   -1.064650
      6         11           0      -11.047519   -7.474864   -4.136948
      7         11           0      -13.385553   15.860076    8.577705
 ---------------------------------------------------------------------

 SCF Done:  E(UB3LYP) =  -1136.06676647     A.U. after   25 cycles

 The electronic state is 2-A.
 Alpha  occ. eigenvalues --  -38.45770 -38.45595 -38.45113 -38.44940 -38.44669
 Alpha  occ. eigenvalues --  -38.44668 -38.43533  -2.21555  -2.21219  -2.20930
 Alpha  occ. eigenvalues --   -2.20770  -2.20402  -2.20392  -2.19371  -1.15168
 Alpha  occ. eigenvalues --   -1.15168  -1.15168  -1.14944  -1.14944  -1.14944
 Alpha  occ. eigenvalues --   -1.14566  -1.14552  -1.14552  -1.14429  -1.14388
 Alpha  occ. eigenvalues --   -1.14388  -1.14075  -1.14075  -1.14068  -1.14068
 Alpha  occ. eigenvalues --   -1.14048  -1.13991  -1.13076  -1.13035  -1.13034
 Alpha  occ. eigenvalues --   -0.14855  -0.12798  -0.12620  -0.12174
 Alpha virt. eigenvalues --   -0.06228  -0.06201  -0.04749  -0.03090  -0.03086
 Alpha virt. eigenvalues --   -0.02216  -0.02215  -0.02097  -0.02097  -0.02097
 Alpha virt. eigenvalues --   -0.01418  -0.01351  -0.01296  -0.01209  -0.00092

  Beta  occ. eigenvalues --  -38.45781 -38.45585 -38.44997 -38.44835 -38.44669
  Beta  occ. eigenvalues --  -38.44668 -38.43531  -2.21565  -2.21209  -2.20715
  Beta  occ. eigenvalues --   -2.20575  -2.20402  -2.20392  -2.19381  -1.15178
  Beta  occ. eigenvalues --   -1.15178  -1.15178  -1.14933  -1.14933  -1.14933
  Beta  occ. eigenvalues --   -1.14423  -1.14406  -1.14406  -1.14300  -1.14256
  Beta  occ. eigenvalues --   -1.14255  -1.14075  -1.14075  -1.14068  -1.14068
  Beta  occ. eigenvalues --   -1.14048  -1.13991  -1.13053  -1.13053  -1.12992
  Beta  occ. eigenvalues --   -0.13614  -0.12808  -0.12620
  Beta virt. eigenvalues --   -0.08133  -0.06218  -0.06201  -0.03892  -0.02750
  Beta virt. eigenvalues --   -0.02741  -0.02216  -0.02215  -0.02108  -0.02107
  Beta virt. eigenvalues --   -0.02107  -0.01351  -0.00741  -0.00615  -0.00579

 Mulliken charges and spin densities:
               1          2
     1  Na  -0.000000  -1.000000
     2  Na  -0.000015  -0.000019
     3  Na   0.000015   0.000019
     4  Na   0.514038   0.274923
     5  Na  -0.915507   0.414664
     6  Na   0.401470   0.310413
     7  Na  -0.000000   1.000000
 Sum of Mulliken charges =  -0.00000   1.00000

 Dipole moment (field-independent basis, Debye):
    X=              0.1085    Y=             -0.0353    Z=             -0.0308  Tot=              0.1182
 Quadrupole moment (field-independent basis, Debye-Ang):
   XX=            -77.7357   YY=            -72.1853   ZZ=            -59.8552
   XY=             -4.5217   XZ=              2.1136   YZ=             -2.2320

 Normal termination of Gaussian 16 at Tue Nov 21 11:50:27 2023.
