 Gaussian 16, Revision B.01,
 Gaussian 16:  ES64L-G16RevB.01 20-Dec-2017

 -------------------------
 #P B3LYP/6-311+g(d) force
 -------------------------

 -----
 DPGEN
 -----
 Symbolic Z-matrix:
 Charge =  0 Multiplicity = 2

                         Standard orientation:
 ---------------------------------------------------------------------
 Center     Atomic      Atomic             Coordinates (Angstroms)
 Number     Number       Type             X           Y           Z
 ---------------------------------------------------------------------
      1         11           0        2.698852    2.509663   -0.703857
      2         11           0        4.884908    0.633310    0.638757
      3         11           0        3.046214   -1.907729    0.744350
      4         11           0        0.779176   -2.035091   -1.300058
      5         11           0       -1.611795    0.402818   -0.505716
      6         11           0       -3.807101    0.255476    1.583908
      7         11           0       -5.990255    0.141554   -0.457384
 ---------------------------------------------------------------------

 SCF Done:  E(UB3LYP) =  -1136.10476945     A.U. after   21 cycles

 The electronic state is 2-A.
 Alpha  occ. eigenvalues --  -38.45181 -38.45121 -38.44470 -38.44103 -38.44055
 Alpha  occ. eigenvalues --  -38.43182 -38.43177  -2.21004  -2.20987  -2.20271
 Alpha  occ. eigenvalues --   -2.19945  -2.19933  -2.19023  -2.18995  -1.14794
 Alpha  occ. eigenvalues --   -1.14698  -1.14651  -1.14630  -1.14616  -1.14525
 Alpha  occ. eigenvalues --   -1.13924  -1.13909  -1.13896  -1.13643  -1.13614
 Alpha  occ. eigenvalues --   -1.13593  -1.13576  -1.13562  -1.13541  -1.12706
 Alpha  occ. eigenvalues --   -1.12692  -1.12684  -1.12676  -1.12654  -1.12631
 Alpha  occ. eigenvalues --   -0.16228  -0.14975  -0.11576  -0.10950
 Alpha virt. eigenvalues --   -0.06904  -0.05193  -0.04451  -0.03576  -0.03151
 Alpha virt. eigenvalues --   -0.02600  -0.02142  -0.01552  -0.01027  -0.00752
 Alpha virt. eigenvalues --   -0.00019   0.00050   0.00271   0.00440   0.00538

  Beta  occ. eigenvalues --  -38.45143 -38.45124 -38.44391 -38.44063 -38.43984
  Beta  occ. eigenvalues --  -38.43192 -38.43187  -2.21003  -2.20926  -2.20123
  Beta  occ. eigenvalues --   -2.19867  -2.19802  -2.19047  -2.19019  -1.14768
  Beta  occ. eigenvalues --   -1.14692  -1.14643  -1.14586  -1.14581  -1.14500
  Beta  occ. eigenvalues --   -1.13823  -1.13814  -1.13792  -1.13592  -1.13536
  Beta  occ. eigenvalues --   -1.13530  -1.13497  -1.13490  -1.13472  -1.12714
  Beta  occ. eigenvalues --   -1.12698  -1.12697  -1.12675  -1.12673  -1.12633
  Beta  occ. eigenvalues --   -0.15767  -0.14488  -0.11258
  Beta virt. eigenvalues --   -0.07619  -0.06351  -0.04857  -0.04060  -0.03429
  Beta virt. eigenvalues --   -0.02612  -0.02440  -0.01737  -0.01386  -0.00852
  Beta virt. eigenvalues --   -0.00448   0.00054   0.00216   0.00382   0.00594

 Mulliken charges and spin densities:
               1          2
     1  Na   0.235101   0.388503
     2  Na  -0.053317  -0.108188
     3  Na   0.271344   0.338847
     4  Na   0.042856  -0.031485
     5  Na  -1.321737   0.249932
     6  Na   0.699079  -0.050306
     7  Na   0.126675   0.212697
 Sum of Mulliken charges =  -0.00000   1.00000

 Dipole moment (field-independent basis, Debye):
    X=             -2.5392    Y=              0.2123    Z=              0.1364  Tot=              2.5517
 Quadrupole moment (field-independent basis, Debye-Ang):
   XX=            -61.1274   YY=            -73.2393   ZZ=            -64.0910
   XY=             -2.0563   XZ=              4.1069   YZ=             -1.5256

 Normal termination of Gaussian 16 at Tue Nov 21 11:50:40 2023.
