 Gaussian 16, Revision B.01,
 Gaussian 16:  ES64L-G16RevB.01 20-Dec-2017

 -------------------------
 #P B3LYP/6-311+g(d) force
 -------------------------

 -----
 DPGEN
 -----
 Symbolic Z-matrix:
 Charge =  0 Multiplicity = 2

                         Standard orientation:
 ---------------------------------------------------------------------
 Center     Atomic      Atomic             Coordinates (Angstroms)
 Number     Number       Type             X           Y           Z
 ---------------------------------------------------------------------
      1         11           0       54.898152    6.564657   -0.689135
      2         11           0      -43.246464    2.326012    1.769588
      3         11           0      -41.030805    2.590212   -0.160886
      4         11           0      -39.567054   -1.059721   -0.780824
      5         11           0      -40.487425   -3.923637   -0.902042
      6         11           0       55.619853   -2.574167   -0.405771
      7         11           0       53.813744   -3.923356    1.169071
 ---------------------------------------------------------------------

 SCF Done:  E(UB3LYP) =  -1136.08793743     A.U. after   13 cycles

 The electronic state is 2-A.
 Alpha  occ. eigenvalues --  -38.45768 -38.44822 -38.44319 -38.44211 -38.44210
 Alpha  occ. eigenvalues --  -38.43875 -38.43728  -2.21553  -2.20619  -2.20134
 Alpha  occ. eigenvalues --   -2.20072  -2.20024  -2.19671  -2.19529  -1.15165
 Alpha  occ. eigenvalues --   -1.15165  -1.15165  -1.14345  -1.14267  -1.14263
 Alpha  occ. eigenvalues --   -1.14049  -1.13785  -1.13782  -1.13772  -1.13708
 Alpha  occ. eigenvalues --   -1.13708  -1.13638  -1.13638  -1.13514  -1.13420
 Alpha  occ. eigenvalues --   -1.13322  -1.13322  -1.13190  -1.13178  -1.13128
 Alpha  occ. eigenvalues --   -0.14366  -0.13396  -0.12795  -0.12254
 Alpha virt. eigenvalues --   -0.06707  -0.05172  -0.04314  -0.03030  -0.02805
 Alpha virt. eigenvalues --   -0.02583  -0.02510  -0.02102  -0.02072  -0.01918
 Alpha virt. eigenvalues --   -0.01652  -0.01235  -0.01001  -0.00740   0.00187

  Beta  occ. eigenvalues --  -38.45582 -38.44822 -38.44319 -38.44211 -38.44210
  Beta  occ. eigenvalues --  -38.43875 -38.43728  -2.21207  -2.20619  -2.20134
  Beta  occ. eigenvalues --   -2.20072  -2.20024  -2.19671  -2.19529  -1.14931
  Beta  occ. eigenvalues --   -1.14931  -1.14931  -1.14345  -1.14267  -1.14263
  Beta  occ. eigenvalues --   -1.14049  -1.13785  -1.13782  -1.13772  -1.13708
  Beta  occ. eigenvalues --   -1.13708  -1.13638  -1.13638  -1.13514  -1.13420
  Beta  occ. eigenvalues --   -1.13322  -1.13322  -1.13190  -1.13178  -1.13128
  Beta  occ. eigenvalues --   -0.14366  -0.13395  -0.12254
  Beta virt. eigenvalues --   -0.06707  -0.06265  -0.05177  -0.04314  -0.03030
  Beta virt. eigenvalues --   -0.02805  -0.02518  -0.02507  -0.01652  -0.01235
  Beta virt. eigenvalues --   -0.01001  -0.00897  -0.00128  -0.00096   0.00049

 Mulliken charges and spin densities:
               1          2
     1  Na   0.000395   1.002653
     2  Na   0.052807  -0.000000
     3  Na  -0.012290   0.000000
     4  Na  -0.361163   0.000000
     5  Na   0.320646  -0.000000
     6  Na  -0.078849  -0.002134
     7  Na   0.078454  -0.000519
 Sum of Mulliken charges =  -0.00000   1.00000

 Dipole moment (field-independent basis, Debye):
    X=             -0.8584    Y=              0.4125    Z=              0.5668  Tot=              1.1082
 Quadrupole moment (field-independent basis, Debye-Ang):
   XX=             -0.5316   YY=            -66.9827   ZZ=            -70.1259
   XY=            -10.4397   XZ=            -30.1581   YZ=             -3.2919

 Normal termination of Gaussian 16 at Thu Nov 23 12:39:50 2023.
