 Gaussian 16, Revision B.01,
 Gaussian 16:  ES64L-G16RevB.01 20-Dec-2017

 -------------------------
 #P B3LYP/6-311+g(d) force
 -------------------------

 -----
 DPGEN
 -----
 Symbolic Z-matrix:
 Charge =  0 Multiplicity = 2

                         Standard orientation:
 ---------------------------------------------------------------------
 Center     Atomic      Atomic             Coordinates (Angstroms)
 Number     Number       Type             X           Y           Z
 ---------------------------------------------------------------------
      1         11           0      -11.477574    2.501191   -0.696947
      2         11           0       -9.170469    0.410714    0.340337
      3         11           0      -11.158814   -1.849375    0.897437
      4         11           0      -13.522206   -2.099386   -1.166571
      5         11           0      -15.585828    0.198252   -0.510633
      6         11           0      -18.172056    0.820323    1.115266
      7         11           0       79.086946    0.018281    0.021110
 ---------------------------------------------------------------------

 SCF Done:  E(UB3LYP) =  -1136.08819326     A.U. after   14 cycles

 The electronic state is 2-A.
 Alpha  occ. eigenvalues --  -38.45774 -38.45278 -38.44778 -38.44579 -38.44387
 Alpha  occ. eigenvalues --  -38.43659 -38.43201  -2.21559  -2.21029  -2.20552
 Alpha  occ. eigenvalues --   -2.20424  -2.20225  -2.19500  -2.19050  -1.15172
 Alpha  occ. eigenvalues --   -1.15172  -1.15172  -1.14703  -1.14692  -1.14669
 Alpha  occ. eigenvalues --   -1.14227  -1.14206  -1.14203  -1.14155  -1.14086
 Alpha  occ. eigenvalues --   -1.14075  -1.13878  -1.13865  -1.13850  -1.13179
 Alpha  occ. eigenvalues --   -1.13169  -1.13156  -1.12716  -1.12702  -1.12697
 Alpha  occ. eigenvalues --   -0.16084  -0.13410  -0.12802  -0.11159
 Alpha virt. eigenvalues --   -0.08144  -0.04893  -0.04493  -0.03525  -0.03018
 Alpha virt. eigenvalues --   -0.02101  -0.02101  -0.02101  -0.02071  -0.01862
 Alpha virt. eigenvalues --   -0.01316  -0.00753  -0.00209  -0.00039   0.00117

  Beta  occ. eigenvalues --  -38.45589 -38.45278 -38.44778 -38.44579 -38.44387
  Beta  occ. eigenvalues --  -38.43659 -38.43201  -2.21213  -2.21029  -2.20552
  Beta  occ. eigenvalues --   -2.20424  -2.20225  -2.19500  -2.19050  -1.14937
  Beta  occ. eigenvalues --   -1.14937  -1.14937  -1.14703  -1.14692  -1.14669
  Beta  occ. eigenvalues --   -1.14227  -1.14206  -1.14203  -1.14155  -1.14086
  Beta  occ. eigenvalues --   -1.14075  -1.13878  -1.13865  -1.13850  -1.13179
  Beta  occ. eigenvalues --   -1.13169  -1.13156  -1.12716  -1.12702  -1.12697
  Beta  occ. eigenvalues --   -0.16084  -0.13410  -0.11159
  Beta virt. eigenvalues --   -0.08144  -0.06222  -0.04893  -0.04493  -0.03525
  Beta virt. eigenvalues --   -0.03018  -0.02071  -0.01862  -0.01316  -0.00753
  Beta virt. eigenvalues --   -0.00209  -0.00088  -0.00088  -0.00088  -0.00039

 Mulliken charges and spin densities:
               1          2
     1  Na   0.103151  -0.000000
     2  Na   0.012631   0.000000
     3  Na   0.232000   0.000000
     4  Na   0.158183   0.000000
     5  Na  -0.965034  -0.000000
     6  Na   0.459068   0.000000
     7  Na  -0.000000   1.000000
 Sum of Mulliken charges =  -0.00000   1.00000

 Dipole moment (field-independent basis, Debye):
    X=              0.3515    Y=              0.2509    Z=              0.4720  Tot=              0.6398
 Quadrupole moment (field-independent basis, Debye-Ang):
   XX=            -69.6385   YY=            -75.6883   ZZ=            -68.5793
   XY=             -8.7152   XZ=             -7.5445   YZ=             -2.4953

 Normal termination of Gaussian 16 at Thu Nov 23 12:40:51 2023.
