 Gaussian 16, Revision B.01,
 Gaussian 16:  ES64L-G16RevB.01 20-Dec-2017

 -------------------------
 #P B3LYP/6-311+g(d) force
 -------------------------

 -----
 DPGEN
 -----
 Symbolic Z-matrix:
 Charge =  0 Multiplicity = 2

                         Standard orientation:
 ---------------------------------------------------------------------
 Center     Atomic      Atomic             Coordinates (Angstroms)
 Number     Number       Type             X           Y           Z
 ---------------------------------------------------------------------
      1         11           0      -13.856086   20.396677    0.316888
      2         11           0       20.677431    1.640763   -0.985074
      3         11           0       20.031305    3.725319    1.117459
      4         11           0       -6.552714   -3.705244   -2.405369
      5         11           0       -6.191391   -6.467445   -1.799520
      6         11           0       -7.944038   -7.665698    0.773360
      7         11           0       -6.164508   -7.924372    2.982257
 ---------------------------------------------------------------------

 SCF Done:  E(UB3LYP) =  -1136.08901349     A.U. after   11 cycles

 The electronic state is 2-A.
 Alpha  occ. eigenvalues --  -38.45778 -38.44310 -38.44201 -38.44198 -38.44197
 Alpha  occ. eigenvalues --  -38.43966 -38.43903  -2.21562  -2.20135  -2.20064
 Alpha  occ. eigenvalues --   -2.19990  -2.19983  -2.19797  -2.19761  -1.15175
 Alpha  occ. eigenvalues --   -1.15175  -1.15175  -1.14009  -1.13778  -1.13776
 Alpha  occ. eigenvalues --   -1.13772  -1.13718  -1.13692  -1.13679  -1.13654
 Alpha  occ. eigenvalues --   -1.13654  -1.13625  -1.13625  -1.13600  -1.13537
 Alpha  occ. eigenvalues --   -1.13447  -1.13439  -1.13397  -1.13383  -1.13281
 Alpha  occ. eigenvalues --   -0.15109  -0.13084  -0.12805  -0.12043
 Alpha virt. eigenvalues --   -0.06251  -0.05528  -0.04521  -0.03193  -0.02376
 Alpha virt. eigenvalues --   -0.02358  -0.02358  -0.02104  -0.02104  -0.02104
 Alpha virt. eigenvalues --   -0.01921  -0.01019  -0.00807  -0.00656   0.00114

  Beta  occ. eigenvalues --  -38.45592 -38.44310 -38.44201 -38.44198 -38.44197
  Beta  occ. eigenvalues --  -38.43966 -38.43903  -2.21216  -2.20135  -2.20064
  Beta  occ. eigenvalues --   -2.19990  -2.19983  -2.19797  -2.19761  -1.14941
  Beta  occ. eigenvalues --   -1.14941  -1.14941  -1.14009  -1.13778  -1.13776
  Beta  occ. eigenvalues --   -1.13772  -1.13718  -1.13692  -1.13679  -1.13654
  Beta  occ. eigenvalues --   -1.13654  -1.13625  -1.13625  -1.13600  -1.13537
  Beta  occ. eigenvalues --   -1.13447  -1.13439  -1.13397  -1.13383  -1.13281
  Beta  occ. eigenvalues --   -0.15109  -0.13084  -0.12043
  Beta virt. eigenvalues --   -0.06251  -0.06225  -0.05528  -0.04521  -0.03193
  Beta virt. eigenvalues --   -0.02376  -0.02358  -0.02358  -0.01921  -0.01019
  Beta virt. eigenvalues --   -0.00807  -0.00656  -0.00090  -0.00090  -0.00089

 Mulliken charges and spin densities:
               1          2
     1  Na  -0.000000   1.000000
     2  Na   0.000100  -0.000000
     3  Na  -0.000100   0.000000
     4  Na   0.335015  -0.000015
     5  Na  -0.383600   0.000015
     6  Na  -0.266023  -0.000002
     7  Na   0.314608   0.000002
 Sum of Mulliken charges =  -0.00000   1.00000

 Dipole moment (field-independent basis, Debye):
    X=              0.1293    Y=              0.1673    Z=              0.5234  Tot=              0.5645
 Quadrupole moment (field-independent basis, Debye-Ang):
   XX=            -73.4805   YY=            -67.3304   ZZ=            -67.9897
   XY=             -4.9036   XZ=             -1.6115   YZ=              1.5122

 Normal termination of Gaussian 16 at Tue Nov 21 11:47:26 2023.
