 Gaussian 16, Revision B.01,
 Gaussian 16:  ES64L-G16RevB.01 20-Dec-2017

 -------------------------
 #P B3LYP/6-311+g(d) force
 -------------------------

 -----
 DPGEN
 -----
 Symbolic Z-matrix:
 Charge =  0 Multiplicity = 2

                         Standard orientation:
 ---------------------------------------------------------------------
 Center     Atomic      Atomic             Coordinates (Angstroms)
 Number     Number       Type             X           Y           Z
 ---------------------------------------------------------------------
      1         11           0      -14.473099   20.002355    0.378432
      2         11           0       20.377909    1.851490   -1.027027
      3         11           0       19.944208    4.263812    1.070930
      4         11           0       -6.921225   -3.598835   -2.275257
      5         11           0       -5.952711   -6.644143   -1.975962
      6         11           0       -7.345499   -7.518672    0.529162
      7         11           0       -5.629582   -8.356006    3.299722
 ---------------------------------------------------------------------

 SCF Done:  E(UB3LYP) =  -1136.08832976     A.U. after   12 cycles

 The electronic state is 2-A.
 Alpha  occ. eigenvalues --  -38.45787 -38.44675 -38.44619 -38.44340 -38.44340
 Alpha  occ. eigenvalues --  -38.43996 -38.43976  -2.21572  -2.20466  -2.20444
 Alpha  occ. eigenvalues --   -2.20103  -2.20100  -2.19828  -2.19730  -1.15185
 Alpha  occ. eigenvalues --   -1.15185  -1.15185  -1.14204  -1.14159  -1.14117
 Alpha  occ. eigenvalues --   -1.14104  -1.14101  -1.14018  -1.13811  -1.13774
 Alpha  occ. eigenvalues --   -1.13774  -1.13758  -1.13758  -1.13677  -1.13526
 Alpha  occ. eigenvalues --   -1.13488  -1.13450  -1.13398  -1.13396  -1.13345
 Alpha  occ. eigenvalues --   -0.15020  -0.12889  -0.12815  -0.11590
 Alpha virt. eigenvalues --   -0.06802  -0.05792  -0.04660  -0.03130  -0.02451
 Alpha virt. eigenvalues --   -0.02290  -0.02290  -0.02114  -0.02114  -0.02114
 Alpha virt. eigenvalues --   -0.01807  -0.01153  -0.00953  -0.00744   0.00034

  Beta  occ. eigenvalues --  -38.45602 -38.44675 -38.44619 -38.44340 -38.44340
  Beta  occ. eigenvalues --  -38.43996 -38.43976  -2.21226  -2.20466  -2.20444
  Beta  occ. eigenvalues --   -2.20103  -2.20100  -2.19828  -2.19730  -1.14950
  Beta  occ. eigenvalues --   -1.14950  -1.14950  -1.14204  -1.14159  -1.14117
  Beta  occ. eigenvalues --   -1.14104  -1.14101  -1.14018  -1.13811  -1.13774
  Beta  occ. eigenvalues --   -1.13774  -1.13758  -1.13758  -1.13677  -1.13526
  Beta  occ. eigenvalues --   -1.13488  -1.13450  -1.13398  -1.13396  -1.13345
  Beta  occ. eigenvalues --   -0.15020  -0.12889  -0.11590
  Beta virt. eigenvalues --   -0.06802  -0.06235  -0.05792  -0.04660  -0.03130
  Beta virt. eigenvalues --   -0.02451  -0.02290  -0.02290  -0.01807  -0.01153
  Beta virt. eigenvalues --   -0.00953  -0.00744  -0.00100  -0.00099  -0.00099

 Mulliken charges and spin densities:
               1          2
     1  Na  -0.000000   1.000000
     2  Na   0.000025   0.000000
     3  Na  -0.000025  -0.000000
     4  Na   0.209821  -0.000009
     5  Na  -0.056044   0.000009
     6  Na  -0.345346  -0.000001
     7  Na   0.191569   0.000001
 Sum of Mulliken charges =  -0.00000   1.00000

 Dipole moment (field-independent basis, Debye):
    X=              0.1331    Y=              0.8129    Z=             -0.4704  Tot=              0.9485
 Quadrupole moment (field-independent basis, Debye-Ang):
   XX=            -74.5269   YY=            -73.8423   ZZ=            -67.0176
   XY=            -10.7053   XZ=              4.0305   YZ=              8.1108

 Normal termination of Gaussian 16 at Tue Nov 21 11:47:50 2023.
