 Gaussian 16, Revision B.01,
 Gaussian 16:  ES64L-G16RevB.01 20-Dec-2017

 -------------------------
 #P B3LYP/6-311+g(d) force
 -------------------------

 -----
 DPGEN
 -----
 Symbolic Z-matrix:
 Charge =  0 Multiplicity = 2

                         Standard orientation:
 ---------------------------------------------------------------------
 Center     Atomic      Atomic             Coordinates (Angstroms)
 Number     Number       Type             X           Y           Z
 ---------------------------------------------------------------------
      1         11           0      -13.733651   20.443531    0.316974
      2         11           0       20.690423    1.630008   -0.986888
      3         11           0       20.045317    3.600092    1.127466
      4         11           0       -6.505580   -3.685148   -2.401833
      5         11           0       -6.185335   -6.437721   -1.821233
      6         11           0       -8.130535   -7.675604    0.741096
      7         11           0       -6.180639   -7.875157    3.024418
 ---------------------------------------------------------------------

 SCF Done:  E(UB3LYP) =  -1136.09001681     A.U. after   11 cycles

 The electronic state is 2-A.
 Alpha  occ. eigenvalues --  -38.45777 -38.44318 -38.44246 -38.44172 -38.44171
 Alpha  occ. eigenvalues --  -38.43892 -38.43856  -2.21561  -2.20115  -2.20078
 Alpha  occ. eigenvalues --   -2.19978  -2.19965  -2.19736  -2.19701  -1.15174
 Alpha  occ. eigenvalues --   -1.15174  -1.15174  -1.13895  -1.13796  -1.13772
 Alpha  occ. eigenvalues --   -1.13769  -1.13735  -1.13719  -1.13641  -1.13638
 Alpha  occ. eigenvalues --   -1.13637  -1.13637  -1.13601  -1.13601  -1.13508
 Alpha  occ. eigenvalues --   -1.13388  -1.13376  -1.13332  -1.13322  -1.13215
 Alpha  occ. eigenvalues --   -0.14931  -0.13158  -0.12804  -0.11975
 Alpha virt. eigenvalues --   -0.06290  -0.05437  -0.04601  -0.03116  -0.02387
 Alpha virt. eigenvalues --   -0.02387  -0.02368  -0.02103  -0.02103  -0.02103
 Alpha virt. eigenvalues --   -0.01926  -0.00972  -0.00813  -0.00700   0.00114

  Beta  occ. eigenvalues --  -38.45591 -38.44318 -38.44246 -38.44172 -38.44171
  Beta  occ. eigenvalues --  -38.43892 -38.43856  -2.21215  -2.20115  -2.20078
  Beta  occ. eigenvalues --   -2.19978  -2.19965  -2.19736  -2.19701  -1.14940
  Beta  occ. eigenvalues --   -1.14940  -1.14940  -1.13895  -1.13796  -1.13772
  Beta  occ. eigenvalues --   -1.13769  -1.13735  -1.13719  -1.13641  -1.13638
  Beta  occ. eigenvalues --   -1.13637  -1.13637  -1.13601  -1.13601  -1.13508
  Beta  occ. eigenvalues --   -1.13388  -1.13376  -1.13332  -1.13322  -1.13215
  Beta  occ. eigenvalues --   -0.14931  -0.13158  -0.11975
  Beta virt. eigenvalues --   -0.06290  -0.06224  -0.05437  -0.04601  -0.03116
  Beta virt. eigenvalues --   -0.02387  -0.02387  -0.02368  -0.01926  -0.00972
  Beta virt. eigenvalues --   -0.00813  -0.00700  -0.00089  -0.00089  -0.00088

 Mulliken charges and spin densities:
               1          2
     1  Na  -0.000000   1.000000
     2  Na   0.000114  -0.000000
     3  Na  -0.000114   0.000000
     4  Na   0.329266  -0.000016
     5  Na  -0.387503   0.000016
     6  Na  -0.194389  -0.000001
     7  Na   0.252626   0.000002
 Sum of Mulliken charges =  -0.00000   1.00000

 Dipole moment (field-independent basis, Debye):
    X=              0.0768    Y=              0.0969    Z=              0.5921  Tot=              0.6049
 Quadrupole moment (field-independent basis, Debye-Ang):
   XX=            -72.1657   YY=            -67.1212   ZZ=            -68.0805
   XY=             -3.8396   XZ=             -1.7107   YZ=              1.2893

 Normal termination of Gaussian 16 at Tue Nov 21 11:47:30 2023.
