 Gaussian 16, Revision B.01,
 Gaussian 16:  ES64L-G16RevB.01 20-Dec-2017

 -------------------------
 #P B3LYP/6-311+g(d) force
 -------------------------

 -----
 DPGEN
 -----
 Symbolic Z-matrix:
 Charge =  0 Multiplicity = 2

                         Standard orientation:
 ---------------------------------------------------------------------
 Center     Atomic      Atomic             Coordinates (Angstroms)
 Number     Number       Type             X           Y           Z
 ---------------------------------------------------------------------
      1         11           0      -14.492177   19.957887    0.365883
      2         11           0       20.314571    1.827335   -1.068068
      3         11           0       19.917995    4.336992    1.107007
      4         11           0       -6.956850   -3.566348   -2.194150
      5         11           0       -5.921109   -6.690453   -2.023872
      6         11           0       -7.232573   -7.476110    0.517695
      7         11           0       -5.629857   -8.389304    3.295505
 ---------------------------------------------------------------------

 SCF Done:  E(UB3LYP) =  -1136.08699177     A.U. after   12 cycles

 The electronic state is 2-A.
 Alpha  occ. eigenvalues --  -38.45789 -38.44801 -38.44800 -38.44460 -38.44460
 Alpha  occ. eigenvalues --  -38.43893 -38.43852  -2.21573  -2.20641  -2.20559
 Alpha  occ. eigenvalues --   -2.20211  -2.20204  -2.19733  -2.19610  -1.15186
 Alpha  occ. eigenvalues --   -1.15186  -1.15186  -1.14381  -1.14295  -1.14278
 Alpha  occ. eigenvalues --   -1.14227  -1.14225  -1.14162  -1.13887  -1.13882
 Alpha  occ. eigenvalues --   -1.13882  -1.13871  -1.13871  -1.13792  -1.13439
 Alpha  occ. eigenvalues --   -1.13393  -1.13353  -1.13277  -1.13275  -1.13229
 Alpha  occ. eigenvalues --   -0.15040  -0.12816  -0.12780  -0.11545
 Alpha virt. eigenvalues --   -0.06856  -0.05954  -0.04658  -0.03148  -0.02455
 Alpha virt. eigenvalues --   -0.02258  -0.02258  -0.02116  -0.02115  -0.02115
 Alpha virt. eigenvalues --   -0.01764  -0.01234  -0.00960  -0.00787   0.00024

  Beta  occ. eigenvalues --  -38.45603 -38.44801 -38.44800 -38.44460 -38.44460
  Beta  occ. eigenvalues --  -38.43893 -38.43852  -2.21227  -2.20641  -2.20559
  Beta  occ. eigenvalues --   -2.20211  -2.20204  -2.19733  -2.19610  -1.14952
  Beta  occ. eigenvalues --   -1.14952  -1.14952  -1.14381  -1.14295  -1.14278
  Beta  occ. eigenvalues --   -1.14227  -1.14225  -1.14162  -1.13887  -1.13882
  Beta  occ. eigenvalues --   -1.13882  -1.13871  -1.13871  -1.13792  -1.13439
  Beta  occ. eigenvalues --   -1.13393  -1.13353  -1.13277  -1.13275  -1.13229
  Beta  occ. eigenvalues --   -0.15040  -0.12780  -0.11545
  Beta virt. eigenvalues --   -0.06856  -0.06236  -0.05954  -0.04658  -0.03148
  Beta virt. eigenvalues --   -0.02455  -0.02258  -0.02258  -0.01764  -0.01234
  Beta virt. eigenvalues --   -0.00960  -0.00787  -0.00101  -0.00100  -0.00100

 Mulliken charges and spin densities:
               1          2
     1  Na  -0.000000   1.000000
     2  Na   0.000009  -0.000000
     3  Na  -0.000009   0.000000
     4  Na   0.195566  -0.000008
     5  Na   0.021518   0.000008
     6  Na  -0.418946  -0.000001
     7  Na   0.201862   0.000001
 Sum of Mulliken charges =  -0.00000   1.00000

 Dipole moment (field-independent basis, Debye):
    X=              0.1356    Y=              0.8953    Z=             -0.6325  Tot=              1.1045
 Quadrupole moment (field-independent basis, Debye-Ang):
   XX=            -75.0557   YY=            -74.5412   ZZ=            -66.7946
   XY=            -11.3805   XZ=              4.6924   YZ=              9.7440

 Normal termination of Gaussian 16 at Tue Nov 21 11:47:54 2023.
