 Gaussian 16, Revision B.01,
 Gaussian 16:  ES64L-G16RevB.01 20-Dec-2017

 -------------------------
 #P B3LYP/6-311+g(d) force
 -------------------------

 -----
 DPGEN
 -----
 Symbolic Z-matrix:
 Charge =  0 Multiplicity = 2

                         Standard orientation:
 ---------------------------------------------------------------------
 Center     Atomic      Atomic             Coordinates (Angstroms)
 Number     Number       Type             X           Y           Z
 ---------------------------------------------------------------------
      1         11           0      -58.824085   -0.385831   67.528279
      2         11           0      -28.916112   -0.672183  -27.382881
      3         11           0      -31.571719   -3.570408  -25.552471
      4         11           0      -33.464271   -5.832373  -25.378905
      5         11           0       38.956334  -67.288852   -0.595753
      6         11           0       93.744904    9.644008   17.906641
      7         11           0       20.074949   68.105639   -6.524909
 ---------------------------------------------------------------------

 SCF Done:  E(UB3LYP) =  -1136.03830404     A.U. after   32 cycles

 The electronic state is 2-A.
 Alpha  occ. eigenvalues --  -38.45937 -38.45774 -38.45774 -38.45773 -38.45589
 Alpha  occ. eigenvalues --  -38.44272 -38.43956  -2.21573  -2.21558  -2.21558
 Alpha  occ. eigenvalues --   -2.21558  -2.21213  -2.20055  -2.19763  -1.15293
 Alpha  occ. eigenvalues --   -1.15293  -1.15273  -1.15171  -1.15171  -1.15171
 Alpha  occ. eigenvalues --   -1.15171  -1.15171  -1.15171  -1.15170  -1.15170
 Alpha  occ. eigenvalues --   -1.15170  -1.14937  -1.14937  -1.14937  -1.13812
 Alpha  occ. eigenvalues --   -1.13714  -1.13714  -1.13423  -1.13421  -1.13355
 Alpha  occ. eigenvalues --   -0.13209  -0.12801  -0.12801  -0.12801
 Alpha virt. eigenvalues --   -0.07940  -0.06222  -0.04584  -0.02548  -0.02520
 Alpha virt. eigenvalues --   -0.02100  -0.02100  -0.02100  -0.02100  -0.02100
 Alpha virt. eigenvalues --   -0.02100  -0.02100  -0.02100  -0.02100  -0.01070

  Beta  occ. eigenvalues --  -38.46100 -38.45774 -38.45588 -38.45588 -38.45588
  Beta  occ. eigenvalues --  -38.44319 -38.43946  -2.21877  -2.21559  -2.21212
  Beta  occ. eigenvalues --   -2.21212  -2.21212  -2.20142  -2.19739  -1.15498
  Beta  occ. eigenvalues --   -1.15498  -1.15478  -1.15171  -1.15171  -1.15171
  Beta  occ. eigenvalues --   -1.14937  -1.14937  -1.14937  -1.14937  -1.14937
  Beta  occ. eigenvalues --   -1.14937  -1.14936  -1.14936  -1.14936  -1.13865
  Beta  occ. eigenvalues --   -1.13773  -1.13773  -1.13402  -1.13401  -1.13379
  Beta  occ. eigenvalues --   -0.14165  -0.12802  -0.12404
  Beta virt. eigenvalues --   -0.06221  -0.06221  -0.06221  -0.05310  -0.02887
  Beta virt. eigenvalues --   -0.02882  -0.02101  -0.02101  -0.02101  -0.01944
  Beta virt. eigenvalues --   -0.01577  -0.01387  -0.00087  -0.00087  -0.00087

 Mulliken charges and spin densities:
               1          2
     1  Na  -0.000000   1.000000
     2  Na   0.086717  -0.829817
     3  Na  -0.414943   0.043632
     4  Na   0.328226  -0.213815
     5  Na  -0.000000   1.000000
     6  Na  -0.000000   1.000000
     7  Na  -0.000000  -1.000000
 Sum of Mulliken charges =  -0.00000   1.00000

 Dipole moment (field-independent basis, Debye):
    X=              0.2343    Y=              0.2292    Z=             -0.3142  Tot=              0.4540
 Quadrupole moment (field-independent basis, Debye-Ang):
   XX=            -87.6706   YY=            -72.4908   ZZ=            -61.4075
   XY=             -1.0452   XZ=              1.8557   YZ=             -6.9884

 Normal termination of Gaussian 16 at Thu Nov 23 12:43:21 2023.
