 Gaussian 16, Revision B.01,
 Gaussian 16:  ES64L-G16RevB.01 20-Dec-2017

 -------------------------
 #P B3LYP/6-311+g(d) force
 -------------------------

 -----
 DPGEN
 -----
 Symbolic Z-matrix:
 Charge =  0 Multiplicity = 2

                         Standard orientation:
 ---------------------------------------------------------------------
 Center     Atomic      Atomic             Coordinates (Angstroms)
 Number     Number       Type             X           Y           Z
 ---------------------------------------------------------------------
      1         11           0      -14.075907   20.290153    0.315758
      2         11           0       20.663452    1.601344   -0.980325
      3         11           0       19.873205    4.046904    1.105742
      4         11           0       -6.578460   -3.565448   -2.324143
      5         11           0       -6.046453   -6.644300   -1.925073
      6         11           0       -7.840638   -7.674094    0.743645
      7         11           0       -5.995199   -8.054559    3.064395
 ---------------------------------------------------------------------

 SCF Done:  E(UB3LYP) =  -1136.09032316     A.U. after   11 cycles

 The electronic state is 2-A.
 Alpha  occ. eigenvalues --  -38.45780 -38.44423 -38.44422 -38.44140 -38.44131
 Alpha  occ. eigenvalues --  -38.44108 -38.44061  -2.21564  -2.20177  -2.20170
 Alpha  occ. eigenvalues --   -2.19933  -2.19926  -2.19916  -2.19900  -1.15177
 Alpha  occ. eigenvalues --   -1.15177  -1.15177  -1.13861  -1.13848  -1.13848
 Alpha  occ. eigenvalues --   -1.13835  -1.13835  -1.13756  -1.13727  -1.13658
 Alpha  occ. eigenvalues --   -1.13625  -1.13592  -1.13588  -1.13580  -1.13572
 Alpha  occ. eigenvalues --   -1.13570  -1.13548  -1.13526  -1.13485  -1.13454
 Alpha  occ. eigenvalues --   -0.14823  -0.12810  -0.12808  -0.11826
 Alpha virt. eigenvalues --   -0.06449  -0.05906  -0.04681  -0.03035  -0.02390
 Alpha virt. eigenvalues --   -0.02266  -0.02266  -0.02107  -0.02106  -0.02106
 Alpha virt. eigenvalues --   -0.01922  -0.01209  -0.00804  -0.00741   0.00051

  Beta  occ. eigenvalues --  -38.45594 -38.44423 -38.44422 -38.44140 -38.44131
  Beta  occ. eigenvalues --  -38.44108 -38.44061  -2.21219  -2.20177  -2.20170
  Beta  occ. eigenvalues --   -2.19933  -2.19926  -2.19916  -2.19900  -1.14943
  Beta  occ. eigenvalues --   -1.14943  -1.14943  -1.13861  -1.13848  -1.13848
  Beta  occ. eigenvalues --   -1.13835  -1.13835  -1.13756  -1.13727  -1.13658
  Beta  occ. eigenvalues --   -1.13625  -1.13592  -1.13588  -1.13580  -1.13572
  Beta  occ. eigenvalues --   -1.13570  -1.13548  -1.13526  -1.13485  -1.13454
  Beta  occ. eigenvalues --   -0.14823  -0.12810  -0.11826
  Beta virt. eigenvalues --   -0.06449  -0.06228  -0.05906  -0.04681  -0.03035
  Beta virt. eigenvalues --   -0.02390  -0.02266  -0.02266  -0.01922  -0.01209
  Beta virt. eigenvalues --   -0.00804  -0.00741  -0.00092  -0.00092  -0.00092

 Mulliken charges and spin densities:
               1          2
     1  Na  -0.000000   1.000000
     2  Na   0.000065  -0.000000
     3  Na  -0.000065   0.000000
     4  Na   0.227570  -0.000011
     5  Na  -0.230200   0.000010
     6  Na  -0.263423  -0.000001
     7  Na   0.266053   0.000002
 Sum of Mulliken charges =  -0.00000   1.00000

 Dipole moment (field-independent basis, Debye):
    X=              0.1796    Y=              0.2855    Z=              0.2805  Tot=              0.4387
 Quadrupole moment (field-independent basis, Debye-Ang):
   XX=            -74.0591   YY=            -67.1009   ZZ=            -69.0252
   XY=             -7.2798   XZ=             -0.4700   YZ=              4.0290

 Normal termination of Gaussian 16 at Tue Nov 21 11:47:34 2023.
