 Gaussian 16, Revision B.01,
 Gaussian 16:  ES64L-G16RevB.01 20-Dec-2017

 -------------------------
 #P B3LYP/6-311+g(d) force
 -------------------------

 -----
 DPGEN
 -----
 Symbolic Z-matrix:
 Charge =  0 Multiplicity = 2

                         Standard orientation:
 ---------------------------------------------------------------------
 Center     Atomic      Atomic             Coordinates (Angstroms)
 Number     Number       Type             X           Y           Z
 ---------------------------------------------------------------------
      1         11           0       24.345129   -6.377976   11.014483
      2         11           0       11.018750    6.626279   -9.216962
      3         11           0       12.567775    4.496949   -7.028834
      4         11           0      -11.828572   -6.396572    1.960000
      5         11           0      -11.696496   -6.794223   -1.052083
      6         11           0      -11.071091   -7.402701   -4.292450
      7         11           0      -13.335496   15.848245    8.615847
 ---------------------------------------------------------------------

 SCF Done:  E(UB3LYP) =  -1136.06788643     A.U. after   25 cycles

 The electronic state is 2-A.
 Alpha  occ. eigenvalues --  -38.45769 -38.45595 -38.45263 -38.44845 -38.44545
 Alpha  occ. eigenvalues --  -38.44545 -38.43580  -2.21554  -2.21219  -2.21068
 Alpha  occ. eigenvalues --   -2.20675  -2.20288  -2.20279  -2.19404  -1.15166
 Alpha  occ. eigenvalues --   -1.15166  -1.15166  -1.14944  -1.14944  -1.14944
 Alpha  occ. eigenvalues --   -1.14694  -1.14694  -1.14688  -1.14339  -1.14294
 Alpha  occ. eigenvalues --   -1.14294  -1.13960  -1.13960  -1.13951  -1.13951
 Alpha  occ. eigenvalues --   -1.13949  -1.13873  -1.13097  -1.13072  -1.13072
 Alpha  occ. eigenvalues --   -0.14745  -0.12797  -0.12706  -0.12195
 Alpha virt. eigenvalues --   -0.06228  -0.06059  -0.04852  -0.03047  -0.03042
 Alpha virt. eigenvalues --   -0.02236  -0.02236  -0.02096  -0.02096  -0.02095
 Alpha virt. eigenvalues --   -0.01494  -0.01329  -0.01282  -0.01247  -0.00092

  Beta  occ. eigenvalues --  -38.45781 -38.45584 -38.45141 -38.44747 -38.44545
  Beta  occ. eigenvalues --  -38.44545 -38.43581  -2.21565  -2.21208  -2.20840
  Beta  occ. eigenvalues --   -2.20494  -2.20288  -2.20279  -2.19417  -1.15178
  Beta  occ. eigenvalues --   -1.15178  -1.15178  -1.14932  -1.14932  -1.14932
  Beta  occ. eigenvalues --   -1.14539  -1.14539  -1.14536  -1.14220  -1.14171
  Beta  occ. eigenvalues --   -1.14171  -1.13960  -1.13960  -1.13951  -1.13951
  Beta  occ. eigenvalues --   -1.13949  -1.13873  -1.13092  -1.13092  -1.13023
  Beta  occ. eigenvalues --   -0.13521  -0.12808  -0.12706
  Beta virt. eigenvalues --   -0.08150  -0.06217  -0.06059  -0.04001  -0.02710
  Beta virt. eigenvalues --   -0.02701  -0.02236  -0.02236  -0.02108  -0.02107
  Beta virt. eigenvalues --   -0.02107  -0.01282  -0.00804  -0.00642  -0.00604

 Mulliken charges and spin densities:
               1          2
     1  Na  -0.000000  -1.000000
     2  Na  -0.000018  -0.000023
     3  Na   0.000018   0.000023
     4  Na   0.521767   0.287581
     5  Na  -0.832229   0.328737
     6  Na   0.310461   0.383682
     7  Na  -0.000000   1.000000
 Sum of Mulliken charges =  -0.00000   1.00000

 Dipole moment (field-independent basis, Debye):
    X=              0.1248    Y=             -0.0567    Z=             -0.0896  Tot=              0.1637
 Quadrupole moment (field-independent basis, Debye-Ang):
   XX=            -78.3588   YY=            -72.3873   ZZ=            -58.8294
   XY=             -4.0308   XZ=              2.9688   YZ=             -2.0614

 Normal termination of Gaussian 16 at Tue Nov 21 11:50:30 2023.
