 Gaussian 16, Revision B.01,

 -------------------------
 #p B3LYP/6-311+g(d) force
 -------------------------

 (Enter /home/sekinelabo/g16/l101.exe)

 Symbolic Z-matrix:
 Charge =  0 Multiplicity = 1

 SCF Done:  E(RB3LYP) =  -649.181599588     A.U. after   15 cycles
 Normal termination of Gaussian 16 at Fri Oct  6 22:02:01 2023.

 -------------------------
 #p B3LYP/6-311+g(d) force
 -------------------------

 (Enter /home/sekinelabo/g16/l101.exe)

 Symbolic Z-matrix:
 Charge =  0 Multiplicity = 1

 SCF Done:  E(RB3LYP) =  -649.161841755     A.U. after   19 cycles
 Normal termination of Gaussian 16 at Fri Oct  6 22:04:59 2023.

 -------------------------
 #p B3LYP/6-311+g(d) force
 -------------------------

 (Enter /home/sekinelabo/g16/l101.exe)

 Symbolic Z-matrix:
 Charge =  0 Multiplicity = 1

 SCF Done:  E(RB3LYP) =  -649.145028839     A.U. after   20 cycles
 Normal termination of Gaussian 16 at Fri Oct  6 22:08:09 2023.

 -------------------------
 #p B3LYP/6-311+g(d) force
 -------------------------

 (Enter /home/sekinelabo/g16/l101.exe)

 Symbolic Z-matrix:
 Charge =  0 Multiplicity = 1

 SCF Done:  E(RB3LYP) =  -649.172325106     A.U. after   13 cycles
 Normal termination of Gaussian 16 at Fri Oct  6 22:10:27 2023.

 -------------------------
 #p B3LYP/6-311+g(d) force
 -------------------------

 (Enter /home/sekinelabo/g16/l101.exe)

 Symbolic Z-matrix:
 Charge =  0 Multiplicity = 1

 SCF Done:  E(RB3LYP) =  -649.162040844     A.U. after   14 cycles

 -------------------------
 #p B3LYP/6-311+g(d) force
 -------------------------

 (Enter /home/sekinelabo/g16/l101.exe)

 Symbolic Z-matrix:
 Charge =  0 Multiplicity = 1

 SCF Done:  E(RB3LYP) =  -649.196756493     A.U. after   12 cycles
 SCF Done:  E(RB3LYP) =  -649.175814350     A.U. after   12 cycles
 SCF Done:  E(RB3LYP) =  -649.203019779     A.U. after   12 cycles
 SCF Done:  E(RB3LYP) =  -649.200384220     A.U. after   12 cycles
 SCF Done:  E(RB3LYP) =  -649.166280504     A.U. after   14 cycles
 SCF Done:  E(RB3LYP) =  -649.168340982     A.U. after   13 cycles
 SCF Done:  E(RB3LYP) =  -649.157349251     A.U. after   18 cycles
 SCF Done:  E(RB3LYP) =  -649.202984316     A.U. after   12 cycles
 SCF Done:  E(RB3LYP) =  -649.167626420     A.U. after   25 cycles
 SCF Done:  E(RB3LYP) =  -649.193285325     A.U. after   14 cycles
 SCF Done:  E(RB3LYP) =  -649.172293289     A.U. after   13 cycles
 SCF Done:  E(RB3LYP) =  -649.165821949     A.U. after   14 cycles
 Normal termination of Gaussian 16 at Sat Oct  7 02:04:39 2023.
 SCF Done:  E(RB3LYP) =  -649.177241144     A.U. after   12 cycles
 Normal termination of Gaussian 16 at Sat Oct  7 02:06:49 2023.
 SCF Done:  E(RB3LYP) =  -649.182704966     A.U. after   11 cycles
 Normal termination of Gaussian 16 at Sat Oct  7 02:08:31 2023.
 Gaussian 16:  ES64L-G16RevB.01 20-Dec-2017

                         Standard orientation:
 ---------------------------------------------------------------------
 Center     Atomic      Atomic             Coordinates (Angstroms)
 Number     Number       Type             X           Y           Z
 ---------------------------------------------------------------------
      1         11           0        4.184340   -2.177125   -0.099487
      2         11           0        3.241807    3.200534    0.017178
      3         11           0       -1.001258   -1.445706    0.163991
      4         11           0       -6.424889    0.422297   -0.081682
 ---------------------------------------------------------------------

 SCF Done:  E(RB3LYP) =  -649.141563954     A.U. after   22 cycles

 The electronic state is 1-A.
 Alpha  occ. eigenvalues --  -38.47104 -38.47028 -38.46275 -38.45636  -2.22768
 Alpha  occ. eigenvalues --   -2.22695  -2.21937  -2.21313  -1.16448  -1.16432
 Alpha  occ. eigenvalues --   -1.16413  -1.16371  -1.16371  -1.16338  -1.15622
 Alpha  occ. eigenvalues --   -1.15621  -1.15566  -1.14988  -1.14988  -1.14962
 Alpha  occ. eigenvalues --   -0.12578  -0.10848
 Alpha virt. eigenvalues --   -0.08955  -0.07823  -0.02798  -0.02686  -0.02543
 Alpha virt. eigenvalues --   -0.02047  -0.01533  -0.01177  -0.01056  -0.00634
 Alpha virt. eigenvalues --   -0.00311  -0.00094   0.00123   0.00350   0.00661

 Mulliken charges:
               1
     1  Na   0.034165
     2  Na   0.040381
     3  Na   0.009959
     4  Na  -0.084506
 Sum of Mulliken charges =  -0.00000

 Dipole moment (field-independent basis, Debye):
    X=              2.3026    Y=              0.3196    Z=             -0.0186  Tot=              2.3247
 Quadrupole moment (field-independent basis, Debye-Ang):
   XX=            -38.7597   YY=            -33.7018   ZZ=            -47.9217
   XY=             -6.2737   XZ=              0.0042   YZ=              0.2159

 Normal termination of Gaussian 16 at Sat Oct  7 02:10:37 2023.
