 Gaussian 16, Revision B.01,

 -------------------------
 #p B3LYP/6-311+g(d) force
 -------------------------

 (Enter /home/sekinelabo/g16/l101.exe)

 Symbolic Z-matrix:
 Charge =  0 Multiplicity = 1

 SCF Done:  E(RB3LYP) =  -649.178633998     A.U. after   16 cycles
 Normal termination of Gaussian 16 at Fri Oct  6 22:02:12 2023.

 -------------------------
 #p B3LYP/6-311+g(d) force
 -------------------------

 (Enter /home/sekinelabo/g16/l101.exe)

 Symbolic Z-matrix:
 Charge =  0 Multiplicity = 1

 SCF Done:  E(RB3LYP) =  -649.185862971     A.U. after   14 cycles
 Normal termination of Gaussian 16 at Fri Oct  6 22:04:36 2023.

 -------------------------
 #p B3LYP/6-311+g(d) force
 -------------------------

 (Enter /home/sekinelabo/g16/l101.exe)

 Symbolic Z-matrix:
 Charge =  0 Multiplicity = 1

 SCF Done:  E(RB3LYP) =  -649.156756653     A.U. after   14 cycles
 Normal termination of Gaussian 16 at Fri Oct  6 22:07:04 2023.

 -------------------------
 #p B3LYP/6-311+g(d) force
 -------------------------

 (Enter /home/sekinelabo/g16/l101.exe)

 Symbolic Z-matrix:
 Charge =  0 Multiplicity = 1

 SCF Done:  E(RB3LYP) =  -649.187591464     A.U. after   12 cycles
 Normal termination of Gaussian 16 at Fri Oct  6 22:09:17 2023.

 -------------------------
 #p B3LYP/6-311+g(d) force
 -------------------------

 (Enter /home/sekinelabo/g16/l101.exe)

 Symbolic Z-matrix:
 Charge =  0 Multiplicity = 1

 SCF Done:  E(RB3LYP) =  -649.168319727     A.U. after   14 cycles

 -------------------------
 #p B3LYP/6-311+g(d) force
 -------------------------

 (Enter /home/sekinelabo/g16/l101.exe)

 Symbolic Z-matrix:
 Charge =  0 Multiplicity = 1

 SCF Done:  E(RB3LYP) =  -649.152094557     A.U. after   14 cycles
 SCF Done:  E(RB3LYP) =  -649.175704377     A.U. after   98 cycles
 SCF Done:  E(RB3LYP) =  -649.187786367     A.U. after   14 cycles
 SCF Done:  E(RB3LYP) =  -649.161044589     A.U. after   18 cycles
 SCF Done:  E(RB3LYP) =  -649.169403999     A.U. after   17 cycles
 SCF Done:  E(RB3LYP) =  -649.203713574     A.U. after   11 cycles
 SCF Done:  E(RB3LYP) =  -649.165742981     A.U. after   13 cycles
 SCF Done:  E(RB3LYP) =  -649.149756326     A.U. after   17 cycles
 SCF Done:  E(RB3LYP) =  -649.180822498     A.U. after   14 cycles
 SCF Done:  E(RB3LYP) =  -649.157088314     A.U. after   18 cycles
 SCF Done:  E(RB3LYP) =  -649.163898752     A.U. after   17 cycles
 SCF Done:  E(RB3LYP) =  -649.164119171     A.U. after   21 cycles
 Normal termination of Gaussian 16 at Sat Oct  7 02:11:44 2023.
 SCF Done:  E(RB3LYP) =  -649.169895794     A.U. after   20 cycles
 Normal termination of Gaussian 16 at Sat Oct  7 02:12:27 2023.
 SCF Done:  E(RB3LYP) =  -649.174646389     A.U. after   13 cycles
 Normal termination of Gaussian 16 at Sat Oct  7 02:12:38 2023.
 Gaussian 16:  ES64L-G16RevB.01 20-Dec-2017

                         Standard orientation:
 ---------------------------------------------------------------------
 Center     Atomic      Atomic             Coordinates (Angstroms)
 Number     Number       Type             X           Y           Z
 ---------------------------------------------------------------------
      1         11           0        2.622976    0.094362    0.238021
      2         11           0        4.768033   -0.587767   -0.165610
      3         11           0       -2.213420    1.723799   -0.070711
      4         11           0       -5.177589   -1.230394   -0.001700
 ---------------------------------------------------------------------

 SCF Done:  E(RB3LYP) =  -649.170034583     A.U. after   12 cycles

 The electronic state is 1-A.
 Alpha  occ. eigenvalues --  -38.45824 -38.45606 -38.45376 -38.45286  -2.21510
 Alpha  occ. eigenvalues --   -2.21470  -2.21295  -2.21103  -1.16269  -1.15190
 Alpha  occ. eigenvalues --   -1.15190  -1.15128  -1.14976  -1.14973  -1.14969
 Alpha  occ. eigenvalues --   -1.14969  -1.14914  -1.14642  -1.14642  -1.14188
 Alpha  occ. eigenvalues --   -0.14061  -0.12333
 Alpha virt. eigenvalues --   -0.07477  -0.04525  -0.03008  -0.02971  -0.02096
 Alpha virt. eigenvalues --   -0.01904  -0.01613  -0.00244  -0.00054   0.00155
 Alpha virt. eigenvalues --    0.00361   0.00968   0.01086   0.01161   0.01182

 Mulliken charges:
               1
     1  Na  -1.276678
     2  Na   1.374717
     3  Na  -0.115911
     4  Na   0.017873
 Sum of Mulliken charges =   0.00000

 Dipole moment (field-independent basis, Debye):
    X=             -0.4962    Y=             -0.2743    Z=             -0.0584  Tot=              0.5700
 Quadrupole moment (field-independent basis, Debye-Ang):
   XX=            -29.0981   YY=            -37.4804   ZZ=            -45.0673
   XY=              4.3549   XZ=             -1.2942   YZ=              0.1351

 Normal termination of Gaussian 16 at Sat Oct  7 02:12:40 2023.
