 Gaussian 16, Revision B.01,

 -------------------------
 #p B3LYP/6-311+g(d) force
 -------------------------

 (Enter /home/sekinelabo/g16/l101.exe)

 Symbolic Z-matrix:
 Charge =  0 Multiplicity = 1

 SCF Done:  E(RB3LYP) =  -649.181303967     A.U. after   11 cycles
 Normal termination of Gaussian 16 at Fri Oct  6 22:01:33 2023.

 -------------------------
 #p B3LYP/6-311+g(d) force
 -------------------------

 (Enter /home/sekinelabo/g16/l101.exe)

 Symbolic Z-matrix:
 Charge =  0 Multiplicity = 1

 SCF Done:  E(RB3LYP) =  -649.156361965     A.U. after   21 cycles
 Normal termination of Gaussian 16 at Fri Oct  6 22:04:46 2023.

 -------------------------
 #p B3LYP/6-311+g(d) force
 -------------------------

 (Enter /home/sekinelabo/g16/l101.exe)

 Symbolic Z-matrix:
 Charge =  0 Multiplicity = 1

 SCF Done:  E(RB3LYP) =  -649.171083132     A.U. after   17 cycles
 Normal termination of Gaussian 16 at Fri Oct  6 22:07:33 2023.

 -------------------------
 #p B3LYP/6-311+g(d) force
 -------------------------

 (Enter /home/sekinelabo/g16/l101.exe)

 Symbolic Z-matrix:
 Charge =  0 Multiplicity = 1

 SCF Done:  E(RB3LYP) =  -649.192996266     A.U. after   14 cycles
 Normal termination of Gaussian 16 at Fri Oct  6 22:09:58 2023.

 -------------------------
 #p B3LYP/6-311+g(d) force
 -------------------------

 (Enter /home/sekinelabo/g16/l101.exe)

 Symbolic Z-matrix:
 Charge =  0 Multiplicity = 1

 SCF Done:  E(RB3LYP) =  -649.160369909     A.U. after   16 cycles

 -------------------------
 #p B3LYP/6-311+g(d) force
 -------------------------

 (Enter /home/sekinelabo/g16/l101.exe)

 Symbolic Z-matrix:
 Charge =  0 Multiplicity = 1

 SCF Done:  E(RB3LYP) =  -649.144217634     A.U. after   20 cycles
 SCF Done:  E(RB3LYP) =  -649.192709225     A.U. after   12 cycles
 SCF Done:  E(RB3LYP) =  -649.186352603     A.U. after   13 cycles
 SCF Done:  E(RB3LYP) =  -649.197794193     A.U. after   14 cycles
 SCF Done:  E(RB3LYP) =  -649.158787334     A.U. after   12 cycles
 SCF Done:  E(RB3LYP) =  -649.177230949     A.U. after   17 cycles
 SCF Done:  E(RB3LYP) =  -649.180835855     A.U. after   12 cycles
 SCF Done:  E(RB3LYP) =  -649.174180033     A.U. after   17 cycles
 SCF Done:  E(RB3LYP) =  -649.173430790     A.U. after   15 cycles
 SCF Done:  E(RB3LYP) =  -649.170005890     A.U. after   17 cycles
 SCF Done:  E(RB3LYP) =  -649.179582916     A.U. after   12 cycles
 SCF Done:  E(RB3LYP) =  -649.188057696     A.U. after   12 cycles
 Normal termination of Gaussian 16 at Sat Oct  7 01:58:54 2023.
 SCF Done:  E(RB3LYP) =  -649.192437601     A.U. after   12 cycles
 Normal termination of Gaussian 16 at Sat Oct  7 02:01:02 2023.
 SCF Done:  E(RB3LYP) =  -649.199244245     A.U. after   11 cycles
 Normal termination of Gaussian 16 at Sat Oct  7 02:03:03 2023.
 Gaussian 16:  ES64L-G16RevB.01 20-Dec-2017

                         Standard orientation:
 ---------------------------------------------------------------------
 Center     Atomic      Atomic             Coordinates (Angstroms)
 Number     Number       Type             X           Y           Z
 ---------------------------------------------------------------------
      1         11           0       -2.263314    2.361137   -0.157235
      2         11           0       -4.174420   -2.309340   -0.031066
      3         11           0        0.497648    0.732848    0.294736
      4         11           0        5.940086   -0.784645   -0.106435
 ---------------------------------------------------------------------

 SCF Done:  E(RB3LYP) =  -649.162228102     A.U. after   20 cycles

 The electronic state is 1-A.
 Alpha  occ. eigenvalues --  -38.46430 -38.45713 -38.45543 -38.45287  -2.22106
 Alpha  occ. eigenvalues --   -2.21462  -2.21228  -2.21028  -1.15785  -1.15784
 Alpha  occ. eigenvalues --   -1.15750  -1.15133  -1.15132  -1.15101  -1.14901
 Alpha  occ. eigenvalues --   -1.14901  -1.14883  -1.14707  -1.14702  -1.14650
 Alpha  occ. eigenvalues --   -0.13931  -0.10680
 Alpha virt. eigenvalues --   -0.09063  -0.06014  -0.03010  -0.02997  -0.02077
 Alpha virt. eigenvalues --   -0.01671  -0.01503  -0.01164  -0.00941  -0.00246
 Alpha virt. eigenvalues --   -0.00102   0.00523   0.00682   0.00759   0.01237

 Mulliken charges:
               1
     1  Na   0.404436
     2  Na   0.025917
     3  Na  -0.323220
     4  Na  -0.107134
 Sum of Mulliken charges =  -0.00000

 Dipole moment (field-independent basis, Debye):
    X=             -1.9613    Y=              0.4267    Z=             -0.0366  Tot=              2.0075
 Quadrupole moment (field-independent basis, Debye-Ang):
   XX=            -40.9611   YY=            -36.7147   ZZ=            -46.0791
   XY=             -3.9456   XZ=              0.5594   YZ=             -0.8499

 Normal termination of Gaussian 16 at Sat Oct  7 02:06:11 2023.
