 Gaussian 16, Revision B.01,
 Gaussian 16:  ES64L-G16RevB.01 20-Dec-2017

 -------------------------
 #P B3LYP/6-311+g(d) force
 -------------------------

 -----
 DPGEN
 -----
 Symbolic Z-matrix:
 Charge =  0 Multiplicity = 2

                         Standard orientation:
 ---------------------------------------------------------------------
 Center     Atomic      Atomic             Coordinates (Angstroms)
 Number     Number       Type             X           Y           Z
 ---------------------------------------------------------------------
      1         11           0        2.771217    2.483961   -0.674392
      2         11           0        4.808552    0.637656    0.631300
      3         11           0        3.006603   -1.954113    0.691835
      4         11           0        0.680810   -1.981431   -1.269683
      5         11           0       -1.545638    0.360725   -0.465115
      6         11           0       -3.743226    0.242213    1.517378
      7         11           0       -5.978318    0.210990   -0.431322
 ---------------------------------------------------------------------

 SCF Done:  E(UB3LYP) =  -1136.10376353     A.U. after   20 cycles

 The electronic state is 2-A.
 Alpha  occ. eigenvalues --  -38.45107 -38.45040 -38.44385 -38.44130 -38.44091
 Alpha  occ. eigenvalues --  -38.43256 -38.43224  -2.20935  -2.20917  -2.20202
 Alpha  occ. eigenvalues --   -2.20010  -2.19956  -2.19112  -2.19058  -1.14739
 Alpha  occ. eigenvalues --   -1.14646  -1.14578  -1.14558  -1.14540  -1.14448
 Alpha  occ. eigenvalues --   -1.13865  -1.13848  -1.13823  -1.13692  -1.13650
 Alpha  occ. eigenvalues --   -1.13649  -1.13637  -1.13596  -1.13556  -1.12790
 Alpha  occ. eigenvalues --   -1.12778  -1.12758  -1.12754  -1.12711  -1.12701
 Alpha  occ. eigenvalues --   -0.16368  -0.15013  -0.11750  -0.10949
 Alpha virt. eigenvalues --   -0.06856  -0.05056  -0.04467  -0.03603  -0.03203
 Alpha virt. eigenvalues --   -0.02605  -0.02075  -0.01560  -0.01026  -0.00681
 Alpha virt. eigenvalues --   -0.00021   0.00075   0.00305   0.00462   0.00567

  Beta  occ. eigenvalues --  -38.45067 -38.45043 -38.44314 -38.44054 -38.44051
  Beta  occ. eigenvalues --  -38.43264 -38.43234  -2.20935  -2.20853  -2.20068
  Beta  occ. eigenvalues --   -2.19879  -2.19869  -2.19132  -2.19081  -1.14710
  Beta  occ. eigenvalues --   -1.14642  -1.14569  -1.14510  -1.14506  -1.14422
  Beta  occ. eigenvalues --   -1.13779  -1.13756  -1.13729  -1.13602  -1.13600
  Beta  occ. eigenvalues --   -1.13555  -1.13542  -1.13540  -1.13511  -1.12795
  Beta  occ. eigenvalues --   -1.12779  -1.12764  -1.12754  -1.12730  -1.12701
  Beta  occ. eigenvalues --   -0.15891  -0.14528  -0.11415
  Beta virt. eigenvalues --   -0.07638  -0.06301  -0.04718  -0.04088  -0.03438
  Beta virt. eigenvalues --   -0.02674  -0.02436  -0.01676  -0.01403  -0.00818
  Beta virt. eigenvalues --   -0.00403   0.00066   0.00228   0.00424   0.00610

 Mulliken charges and spin densities:
               1          2
     1  Na   0.211687   0.365862
     2  Na  -0.048472  -0.107580
     3  Na   0.304341   0.370465
     4  Na   0.051936  -0.021754
     5  Na  -1.332252   0.230000
     6  Na   0.687565  -0.044783
     7  Na   0.125193   0.207790
 Sum of Mulliken charges =  -0.00000   1.00000

 Dipole moment (field-independent basis, Debye):
    X=             -2.2960    Y=              0.1738    Z=              0.0582  Tot=              2.3033
 Quadrupole moment (field-independent basis, Debye-Ang):
   XX=            -61.6792   YY=            -72.9442   ZZ=            -64.5358
   XY=             -2.2893   XZ=              4.4309   YZ=             -1.6566

 Normal termination of Gaussian 16 at Tue Nov 21 11:50:36 2023.
