 Gaussian 16, Revision B.01,
 Gaussian 16:  ES64L-G16RevB.01 20-Dec-2017

 -------------------------
 #P B3LYP/6-311+g(d) force
 -------------------------

 -----
 DPGEN
 -----
 Symbolic Z-matrix:
 Charge =  0 Multiplicity = 2

                         Standard orientation:
 ---------------------------------------------------------------------
 Center     Atomic      Atomic             Coordinates (Angstroms)
 Number     Number       Type             X           Y           Z
 ---------------------------------------------------------------------
      1         11           0      -17.842063   13.842782    1.570515
      2         11           0      -12.551412  -12.719509   -0.411768
      3         11           0      -14.155905   -9.682426   -0.839277
      4         11           0       13.227373   -1.712763    2.949338
      5         11           0       12.820106   -3.895960    0.500057
      6         11           0       13.247144   -6.452924   -1.832504
      7         11           0        5.254756   20.620800   -1.936361
 ---------------------------------------------------------------------

 SCF Done:  E(UB3LYP) =  -1136.06751648     A.U. after   29 cycles

 The electronic state is 2-A.
 Alpha  occ. eigenvalues --  -38.45771 -38.45592 -38.45270 -38.44991 -38.44586
 Alpha  occ. eigenvalues --  -38.44585 -38.43758  -2.21556  -2.21216  -2.21061
 Alpha  occ. eigenvalues --   -2.20791  -2.20325  -2.20316  -2.19535  -1.15168
 Alpha  occ. eigenvalues --   -1.15168  -1.15168  -1.14941  -1.14941  -1.14941
 Alpha  occ. eigenvalues --   -1.14693  -1.14693  -1.14672  -1.14423  -1.14423
 Alpha  occ. eigenvalues --   -1.14416  -1.13997  -1.13997  -1.13989  -1.13989
 Alpha  occ. eigenvalues --   -1.13980  -1.13911  -1.13223  -1.13223  -1.13197
 Alpha  occ. eigenvalues --   -0.14445  -0.12799  -0.12670  -0.12200
 Alpha virt. eigenvalues --   -0.06225  -0.06107  -0.05169  -0.02927  -0.02916
 Alpha virt. eigenvalues --   -0.02224  -0.02224  -0.02098  -0.02098  -0.02097
 Alpha virt. eigenvalues --   -0.01752  -0.01390  -0.01304  -0.01286  -0.00089

  Beta  occ. eigenvalues --  -38.45778 -38.45586 -38.45152 -38.44889 -38.44586
  Beta  occ. eigenvalues --  -38.44585 -38.43768  -2.21562  -2.21210  -2.20841
  Beta  occ. eigenvalues --   -2.20601  -2.20325  -2.20316  -2.19563  -1.15175
  Beta  occ. eigenvalues --   -1.15175  -1.15175  -1.14934  -1.14934  -1.14934
  Beta  occ. eigenvalues --   -1.14544  -1.14544  -1.14526  -1.14294  -1.14294
  Beta  occ. eigenvalues --   -1.14290  -1.13997  -1.13997  -1.13989  -1.13989
  Beta  occ. eigenvalues --   -1.13980  -1.13911  -1.13251  -1.13251  -1.13148
  Beta  occ. eigenvalues --   -0.13246  -0.12805  -0.12670
  Beta virt. eigenvalues --   -0.08199  -0.06219  -0.06107  -0.04344  -0.02604
  Beta virt. eigenvalues --   -0.02582  -0.02224  -0.02224  -0.02105  -0.02104
  Beta virt. eigenvalues --   -0.02104  -0.01304  -0.01025  -0.00704  -0.00641

 Mulliken charges and spin densities:
               1          2
     1  Na  -0.000000  -1.000000
     2  Na   0.000017  -0.000025
     3  Na  -0.000017   0.000025
     4  Na   0.292942   0.416573
     5  Na  -0.530797   0.085388
     6  Na   0.237855   0.498039
     7  Na  -0.000000   1.000000
 Sum of Mulliken charges =  -0.00000   1.00000

 Dipole moment (field-independent basis, Debye):
    X=              0.1789    Y=             -0.0914    Z=              0.0113  Tot=              0.2012
 Quadrupole moment (field-independent basis, Debye-Ang):
   XX=            -71.0363   YY=            -60.3670   ZZ=            -70.3765
   XY=             -7.1528   XZ=              1.0731   YZ=              6.4040

 Normal termination of Gaussian 16 at Tue Nov 21 11:50:41 2023.
