 Gaussian 16, Revision B.01,
 Gaussian 16:  ES64L-G16RevB.01 20-Dec-2017

 -------------------------
 #P B3LYP/6-311+g(d) force
 -------------------------

 -----
 DPGEN
 -----
 Symbolic Z-matrix:
 Charge =  0 Multiplicity = 2

                         Standard orientation:
 ---------------------------------------------------------------------
 Center     Atomic      Atomic             Coordinates (Angstroms)
 Number     Number       Type             X           Y           Z
 ---------------------------------------------------------------------
      1         11           0       -2.812891   -2.471771   -0.669315
      2         11           0       -4.797538   -0.700226    0.627672
      3         11           0       -2.950456    2.058860    0.669829
      4         11           0       -0.606964    1.987682   -1.270516
      5         11           0        1.491350   -0.372553   -0.439421
      6         11           0        3.681259   -0.230780    1.510950
      7         11           0        5.995240   -0.271213   -0.429199
 ---------------------------------------------------------------------

 SCF Done:  E(UB3LYP) =  -1136.10382317     A.U. after   20 cycles

 The electronic state is 2-A.
 Alpha  occ. eigenvalues --  -38.45069 -38.45000 -38.44281 -38.44188 -38.44157
 Alpha  occ. eigenvalues --  -38.43301 -38.43277  -2.20889  -2.20874  -2.20105
 Alpha  occ. eigenvalues --   -2.20053  -2.20032  -2.19152  -2.19115  -1.14667
 Alpha  occ. eigenvalues --   -1.14612  -1.14534  -1.14518  -1.14500  -1.14415
 Alpha  occ. eigenvalues --   -1.13796  -1.13747  -1.13734  -1.13724  -1.13721
 Alpha  occ. eigenvalues --   -1.13689  -1.13672  -1.13669  -1.13632  -1.12832
 Alpha  occ. eigenvalues --   -1.12812  -1.12805  -1.12798  -1.12767  -1.12764
 Alpha  occ. eigenvalues --   -0.16375  -0.14909  -0.11842  -0.10952
 Alpha virt. eigenvalues --   -0.06862  -0.04985  -0.04537  -0.03585  -0.03222
 Alpha virt. eigenvalues --   -0.02610  -0.02008  -0.01595  -0.01059  -0.00688
 Alpha virt. eigenvalues --   -0.00040   0.00078   0.00293   0.00467   0.00550

  Beta  occ. eigenvalues --  -38.45022 -38.45005 -38.44223 -38.44112 -38.44109
  Beta  occ. eigenvalues --  -38.43308 -38.43288  -2.20892  -2.20796  -2.19994
  Beta  occ. eigenvalues --   -2.19946  -2.19906  -2.19171  -2.19142  -1.14631
  Beta  occ. eigenvalues --   -1.14611  -1.14526  -1.14461  -1.14457  -1.14383
  Beta  occ. eigenvalues --   -1.13726  -1.13671  -1.13668  -1.13647  -1.13640
  Beta  occ. eigenvalues --   -1.13609  -1.13587  -1.13580  -1.13575  -1.12834
  Beta  occ. eigenvalues --   -1.12817  -1.12812  -1.12797  -1.12788  -1.12765
  Beta  occ. eigenvalues --   -0.15882  -0.14414  -0.11516
  Beta virt. eigenvalues --   -0.07673  -0.06290  -0.04635  -0.04149  -0.03409
  Beta virt. eigenvalues --   -0.02745  -0.02435  -0.01633  -0.01427  -0.00830
  Beta virt. eigenvalues --   -0.00414   0.00048   0.00226   0.00432   0.00610

 Mulliken charges and spin densities:
               1          2
     1  Na   0.181745   0.305024
     2  Na  -0.011665  -0.102566
     3  Na   0.288895   0.381753
     4  Na   0.050254  -0.020616
     5  Na  -1.314592   0.244354
     6  Na   0.688048  -0.049011
     7  Na   0.117315   0.241062
 Sum of Mulliken charges =  -0.00000   1.00000

 Dipole moment (field-independent basis, Debye):
    X=              2.1549    Y=             -0.1059    Z=              0.0415  Tot=              2.1579
 Quadrupole moment (field-independent basis, Debye-Ang):
   XX=            -62.1650   YY=            -73.1822   ZZ=            -64.4308
   XY=             -2.8278   XZ=             -4.9000   YZ=              2.0126

 Normal termination of Gaussian 16 at Tue Nov 21 11:50:35 2023.
