 Gaussian 16, Revision B.01,
 Gaussian 16:  ES64L-G16RevB.01 20-Dec-2017

 -------------------------
 #P B3LYP/6-311+g(d) force
 -------------------------

 -----
 DPGEN
 -----
 Symbolic Z-matrix:
 Charge =  0 Multiplicity = 2

                         Standard orientation:
 ---------------------------------------------------------------------
 Center     Atomic      Atomic             Coordinates (Angstroms)
 Number     Number       Type             X           Y           Z
 ---------------------------------------------------------------------
      1         11           0       54.786148    6.434670   -0.530813
      2         11           0      -43.180829    2.239028    1.950208
      3         11           0      -40.978965    2.676011   -0.446761
      4         11           0      -39.116607   -1.294780   -0.947697
      5         11           0      -40.550704   -3.681915   -0.642051
      6         11           0       55.439906   -2.468336   -0.652234
      7         11           0       53.601051   -3.904678    1.269349
 ---------------------------------------------------------------------

 SCF Done:  E(UB3LYP) =  -1136.08681893     A.U. after   13 cycles

 The electronic state is 2-A.
 Alpha  occ. eigenvalues --  -38.45763 -38.44644 -38.44374 -38.44192 -38.44191
 Alpha  occ. eigenvalues --  -38.44028 -38.43925  -2.21549  -2.20398  -2.20134
 Alpha  occ. eigenvalues --   -2.19986  -2.19978  -2.19860  -2.19751  -1.15161
 Alpha  occ. eigenvalues --   -1.15160  -1.15160  -1.14065  -1.14062  -1.14047
 Alpha  occ. eigenvalues --   -1.13804  -1.13793  -1.13772  -1.13765  -1.13763
 Alpha  occ. eigenvalues --   -1.13649  -1.13649  -1.13620  -1.13619  -1.13531
 Alpha  occ. eigenvalues --   -1.13496  -1.13494  -1.13385  -1.13371  -1.13291
 Alpha  occ. eigenvalues --   -0.13957  -0.13094  -0.12789  -0.12273
 Alpha virt. eigenvalues --   -0.06618  -0.05512  -0.04509  -0.02919  -0.02807
 Alpha virt. eigenvalues --   -0.02494  -0.02382  -0.02102  -0.02052  -0.01849
 Alpha virt. eigenvalues --   -0.01708  -0.01360  -0.00909  -0.00843   0.00035

  Beta  occ. eigenvalues --  -38.45577 -38.44644 -38.44374 -38.44192 -38.44191
  Beta  occ. eigenvalues --  -38.44028 -38.43925  -2.21202  -2.20398  -2.20134
  Beta  occ. eigenvalues --   -2.19986  -2.19978  -2.19860  -2.19751  -1.14926
  Beta  occ. eigenvalues --   -1.14926  -1.14926  -1.14065  -1.14062  -1.14047
  Beta  occ. eigenvalues --   -1.13804  -1.13793  -1.13772  -1.13765  -1.13763
  Beta  occ. eigenvalues --   -1.13649  -1.13649  -1.13619  -1.13619  -1.13531
  Beta  occ. eigenvalues --   -1.13496  -1.13494  -1.13385  -1.13371  -1.13291
  Beta  occ. eigenvalues --   -0.13957  -0.13091  -0.12273
  Beta virt. eigenvalues --   -0.06618  -0.06264  -0.05514  -0.04509  -0.02919
  Beta virt. eigenvalues --   -0.02807  -0.02382  -0.02369  -0.01708  -0.01360
  Beta virt. eigenvalues --   -0.01062  -0.00843  -0.00131  -0.00096   0.00035

 Mulliken charges and spin densities:
               1          2
     1  Na   0.001058   1.002874
     2  Na   0.033003  -0.000000
     3  Na  -0.014721   0.000000
     4  Na  -0.205555  -0.000000
     5  Na   0.187272   0.000000
     6  Na  -0.060550  -0.003293
     7  Na   0.059491   0.000419
 Sum of Mulliken charges =  -0.00000   1.00000

 Dipole moment (field-independent basis, Debye):
    X=             -0.6072    Y=              0.0496    Z=              0.4256  Tot=              0.7432
 Quadrupole moment (field-independent basis, Debye-Ang):
   XX=            -21.7219   YY=            -70.1448   ZZ=            -67.7720
   XY=              6.1814   XZ=            -25.1638   YZ=             -5.8532

 Normal termination of Gaussian 16 at Thu Nov 23 12:39:42 2023.
