 Gaussian 16, Revision B.01,
 Gaussian 16:  ES64L-G16RevB.01 20-Dec-2017

 -------------------------
 #P B3LYP/6-311+g(d) force
 -------------------------

 -----
 DPGEN
 -----
 Symbolic Z-matrix:
 Charge =  0 Multiplicity = 2

                         Standard orientation:
 ---------------------------------------------------------------------
 Center     Atomic      Atomic             Coordinates (Angstroms)
 Number     Number       Type             X           Y           Z
 ---------------------------------------------------------------------
      1         11           0       11.196086    2.583428    0.713415
      2         11           0        9.349060    0.359227   -0.367140
      3         11           0       11.257962   -1.749092   -0.799345
      4         11           0       13.529965   -1.933391    1.158189
      5         11           0       15.783756   -0.023333    0.447356
      6         11           0       18.163881    0.763915   -1.125319
      7         11           0      -79.280710   -0.000755   -0.027156
 ---------------------------------------------------------------------

 SCF Done:  E(UB3LYP) =  -1136.08359199     A.U. after   14 cycles

 The electronic state is 2-A.
 Alpha  occ. eigenvalues --  -38.45775 -38.45137 -38.44750 -38.44550 -38.44382
 Alpha  occ. eigenvalues --  -38.43565 -38.43564  -2.21559  -2.20915  -2.20639
 Alpha  occ. eigenvalues --   -2.20433  -2.20183  -2.19447  -2.19435  -1.15172
 Alpha  occ. eigenvalues --   -1.15172  -1.15172  -1.14593  -1.14577  -1.14569
 Alpha  occ. eigenvalues --   -1.14462  -1.14306  -1.14269  -1.14063  -1.14050
 Alpha  occ. eigenvalues --   -1.14030  -1.13903  -1.13826  -1.13824  -1.13238
 Alpha  occ. eigenvalues --   -1.13105  -1.13103  -1.13075  -1.13069  -1.12999
 Alpha  occ. eigenvalues --   -0.16403  -0.13656  -0.12802  -0.11262
 Alpha virt. eigenvalues --   -0.07988  -0.04779  -0.04413  -0.03599  -0.02989
 Alpha virt. eigenvalues --   -0.02138  -0.02101  -0.02101  -0.02101  -0.01838
 Alpha virt. eigenvalues --   -0.01189  -0.00728  -0.00185   0.00041   0.00117

  Beta  occ. eigenvalues --  -38.45589 -38.45137 -38.44750 -38.44550 -38.44382
  Beta  occ. eigenvalues --  -38.43565 -38.43564  -2.21213  -2.20915  -2.20639
  Beta  occ. eigenvalues --   -2.20433  -2.20183  -2.19447  -2.19435  -1.14938
  Beta  occ. eigenvalues --   -1.14938  -1.14938  -1.14593  -1.14577  -1.14569
  Beta  occ. eigenvalues --   -1.14462  -1.14306  -1.14269  -1.14063  -1.14050
  Beta  occ. eigenvalues --   -1.14030  -1.13903  -1.13826  -1.13824  -1.13238
  Beta  occ. eigenvalues --   -1.13105  -1.13103  -1.13075  -1.13069  -1.12999
  Beta  occ. eigenvalues --   -0.16403  -0.13656  -0.11262
  Beta virt. eigenvalues --   -0.07988  -0.06222  -0.04779  -0.04413  -0.03599
  Beta virt. eigenvalues --   -0.02989  -0.02138  -0.01838  -0.01189  -0.00728
  Beta virt. eigenvalues --   -0.00185  -0.00088  -0.00088  -0.00088   0.00041

 Mulliken charges and spin densities:
               1          2
     1  Na   0.030314  -0.000000
     2  Na   0.081924   0.000000
     3  Na   0.181082  -0.000000
     4  Na   0.086900  -0.000000
     5  Na  -0.873743   0.000000
     6  Na   0.493524   0.000000
     7  Na  -0.000000   1.000000
 Sum of Mulliken charges =  -0.00000   1.00000

 Dipole moment (field-independent basis, Debye):
    X=             -0.7229    Y=              0.3020    Z=             -0.2935  Tot=              0.8366
 Quadrupole moment (field-independent basis, Debye-Ang):
   XX=            -83.6998   YY=            -74.1390   ZZ=            -68.3652
   XY=              9.5772   XZ=             -4.7919   YZ=              2.4803

 Normal termination of Gaussian 16 at Thu Nov 23 12:40:59 2023.
